LAMMPS data file via write_data, version 27 Oct 2021, timestep = 500000

50 atoms
1 atom types

-2.89 2.89 xlo xhi
-2.89 2.89 ylo yhi
-2.89 51 zlo zhi

Atoms # sphere

2 1 1 1 -1.246009398559094 -1.3543159977092676 -1.2490632589252029 0 0 0
11 1 1 1 0.1461891160920314 -1.271361825785413 -1.1752465727500578 0 0 0
10 1 1 1 1.1815889007694407 -1.3316721168045458 -1.384522048699587 0 0 0
4 1 1 1 -0.5732713842048768 -0.4508556274170933 -1.121720651452296 0 0 0
5 1 1 1 1.385027681717124 -0.3196877222137803 -1.2382433452122035 0 0 0
3 1 1 1 -1.3835618954042592 0.19479967249182867 -1.3504909444186253 0 0 0
8 1 1 1 0.462145019001862 0.30302708997538885 -1.3051545302772123 0 0 0
25 1 1 1 -0.6663035291551166 0.91640604302479 -1.2970298472391917 0 0 0
7 1 1 1 0.2686128590488299 1.3773858309779412 -1.0884370907847056 0 0 0
1 1 1 1 1.2463832416198135 1.0953989198262943 -1.1480974100646613 0 0 0
12 1 1 1 -1.340811867259838 -0.7391802539705283 -0.39877471432046224 0 0 0
22 1 1 1 1.2329881942897782 0.33492512217461035 -0.4459181172103249 0 0 0
24 1 1 1 0.06072758649081089 -1.2954823670030502 0.1029833854038163 0 0 0
6 1 1 1 1.3205581585099482 -1.346428125264146 -0.15220071656992742 0 0 0
18 1 1 1 -0.836041153775401 0.23487431206284332 0.20284349909471802 0 0 0
29 1 1 1 -1.241582270365352 1.3280496584362247 -0.2575793347381395 0 0 0
21 1 1 1 -0.14068311252934573 1.2129920854601475 -0.1413241915301533 0 0 0
9 1 1 1 0.9624712411163953 1.3736660930400653 0.29997379141495023 0 0 0
17 1 1 1 -1.1485668311476671 -1.3494652335776987 0.43567953051878716 0 0 0
14 1 1 1 1.3057139934506607 -0.9569427979558663 0.9879782071352035 0 0 0
30 1 1 1 0.5362313531289812 -0.4580213971824313 0.4576792795648909 0 0 0
28 1 1 1 -1.3698496133012448 0.5536950744704514 1.6334426462123846 0 0 0
19 1 1 1 -0.14713363636470664 1.1618639810871012 1.1954140676080587 0 0 0
32 1 1 1 0.6837609350279245 -1.2503935574003844 2.00298301815483 0 0 0
31 1 1 1 -0.9774959425440729 -0.4129076020012637 2.7169935900104107 0 0 0
15 1 1 1 -0.8665001318056706 0.8720117229671702 2.6390065600799075 0 0 0
23 1 1 1 0.08363396272055117 1.2522729080888173 3.0102069905784603 0 0 0
27 1 1 1 0.5937010256059236 -0.8192719287412624 3.571462989268768 0 0 0
26 1 1 1 -0.5507077022095018 -1.2735671603529455 3.948179052417074 0 0 0
20 1 1 1 0.38453494835987595 1.1551766116836588 4.0231972576561645 0 0 0
16 1 1 1 0.8751412348420631 -0.6108180424763419 4.648033162215628 0 0 0
13 1 1 1 0.6803448086233238 0.7136397005181607 5.600937813323933 0 0 0
37 1 1 1 0.4842306572265135 0.3046560060114859 11.097896832363055 0 0 0
41 1 1 1 -0.511016655955937 -0.15693665143425428 12.306919857273481 0 0 0
38 1 1 1 -0.7941251204554575 -0.4208994948728474 24.232907752321076 0 0 0
33 1 1 1 -0.6367874810783134 0.6528055167863173 24.47555227465516 0 0 0
35 1 1 1 0.37103385531391664 0.6260062609966873 24.996820590983177 0 0 0
40 1 1 1 0.7656885190939945 -0.4730595872379186 26.234310726221047 0 0 0
50 1 1 1 0.43774698374222354 0.4735557555516975 28.18962039347647 0 0 0
36 1 1 1 -0.3877793052689076 -0.8267836545299663 32.12766310298472 0 0 0
39 1 1 1 -0.8612393880967234 0.10960425836947008 32.77749647223504 0 0 0
34 1 1 1 0.29849031424545236 0.6867115233171318 32.55257235050654 0 0 0
46 1 1 1 -0.40999262614175336 -0.3660675644483732 34.80272068723867 0 0 0
48 1 1 1 0.6151987738000223 -0.37420874302471463 34.736720592301374 0 0 0
44 1 1 1 0.6982997754347976 0.7843257326420051 35.52384615712331 0 0 0
45 1 1 1 -0.42307120590148084 0.5422424138114984 36.409422400415615 0 0 0
42 1 1 1 -0.2311201681015641 -0.4766652829882993 37.401556087861266 0 0 0
49 1 1 1 0.7513487729995273 0.59882780305521 39.140614528003475 0 0 0
43 1 1 1 -0.7978902938160535 0.3778318335897436 40.34757315334382 0 0 0
47 1 1 1 -0.598734289970591 -0.5872115357207188 43.97186474705754 0 0 0

Velocities

2 1.5777442563251218 -1.8076162988746316 -0.902643591229832 1.8356765111638733 0.2857765415696195 1.2478950797147488
11 2.7727702281201076 0.5190425445454139 0.2262909669258064 2.0030547220659027 -1.7752288214514693 1.5041586801081623
10 -1.5611956137802605 -1.4688928082908175 0.5441055324088546 0.03049518647395886 -0.881929139259229 1.8037162428689846
4 -0.8320266768600346 1.4780850941668837 -1.5401797333736287 -3.2382722500397634 0.3752567477448917 -0.22907358678446516
5 -0.5751266011164249 0.7820500394697553 -1.7553581754475542 -2.0380745256618242 -2.649859879465948 -0.4390252366737986
3 -1.9049622959545776 2.321268808697865 0.785890601220623 -1.8028976927860112 -1.5418095130976828 0.3270370106706961
8 -0.7104583142030401 -0.36100698740972437 -3.0584700402467977 1.3830974927569768 -2.9294227001780078 -1.4523720856496256
25 -2.3224162599285707 0.7846145702080383 0.1393678352153237 1.3096067781610756 1.5244441672834523 0.21815543847174898
7 -1.4233045777668414 -1.4746689797833452 -1.1092478015562126 0.5506907780593071 0.16088151456675853 1.3991941562906147
1 1.989226062816395 0.27375265143547733 -2.861996638553133 -2.295489179800145 0.14085640961537096 -0.31159242336344983
12 -1.5378414620302805 -0.6276992144935704 0.7789931868004087 1.5635980301749695 -1.9500319411540317 3.8361453031046517
22 -3.108157296675347 -0.7919722795187227 0.3106255303340298 0.04759509539934014 -2.3561015020444636 1.0706284788230502
24 -0.19991164450250362 -0.8997324816691329 0.05174486255197136 -2.8489584246209927 -2.299945786714469 -0.518512720961561
6 -2.9059844502883205 -0.8500495077585561 2.1154870014891762 -0.4576595173048055 2.407845632975733 -0.3812704357478407
18 0.3327761150939613 -0.9025263272723667 -2.4644737996371493 4.493337454964996 5.641777868537032 4.498134856503463
29 1.7033478671566726 -2.2984830521909614 -0.9789384665043355 -4.175460739591857 -0.43610127921768 2.9488896804603817
21 3.0971378172100734 0.5481925119185388 -2.5811885261885212 0.9162171853611432 3.030673021738698 -7.820188476480364
9 -0.7967572129763666 -0.3232745680657151 1.4573536328485417 -3.5263598632822784 -3.510157140243022 -1.5276772189525907
17 1.3533200141365398 -0.40275435891622297 -0.6217319141256079 2.0038321972755506 1.4107957257142905 -0.9629844340431284
14 0.8047760200518821 -0.351039234242818 -3.487914007677061 -0.5503454008454507 -1.2480521555467012 2.951733258332804
30 -1.1765392427771248 -1.151363214680439 -2.999327144454 -0.8215515465882852 -3.1828250527410553 -3.8643394928784196
28 1.0804818664639342 -1.5463222499487985 3.3110765610265007 1.0312646686147366 -1.529747688151786 -4.063897171323143
19 -2.4059880151145068 -1.6937262093903023 0.7683534969677335 2.5693128782998507 -6.369915966628511 1.806765157737096
32 -1.9824947620322835 1.2387918288945967 1.1187896512873896 -3.082603504396541 -1.0536247488568977 -2.73263357642053
31 -0.8302159072802823 4.14164284655013 -2.2266195706416503 2.125241915582877 4.746001384636353 -2.7095168611703024
15 2.4418401129945577 0.9686430068981562 -0.06721561034991667 -3.4862289752354525 1.2023572348735985 3.003564465335428
23 2.0819440820185613 -3.2527097633644777 0.25029353541510674 -2.3258204446335187 -10.340240791997516 -2.282519779185285
27 -3.559217775691484 5.1426308496532185 2.0133555154187026 -0.3619476569804484 2.051235506427522 3.473484702153752
26 -1.2041422111872198 1.3998180664761994 0.5122262543601057 -4.15602974924122 0.35182706637004424 -3.161193793950815
20 1.7764722581261019 -5.571901423548275 -0.3886247720849008 1.1111005498892188 3.9999967996321266 -0.11769185916501368
16 1.3817236388320586 -1.176823761076347 4.555782777619746 -0.7717981968994011 -4.650009801741449 -3.254287842277955
13 -0.24323078434172798 -1.4768348516902758 5.309581439389597 -5.173670533015024 -7.4289406349798925 -3.356652016387992
37 0 0 -27.25586750715499 0 0 0
41 0 0 -26.81763261982947 0 0 0
38 0 0 -22.03260283429478 0 0 0
33 0 0 -21.924409784827493 0 0 0
35 0 0 -21.69015588823609 0 0 0
40 0 0 -21.123636057412867 0 0 0
50 0 0 -20.196149611289574 0 0 0
36 0 0 -18.185103951416576 0 0 0
39 0 0 -17.831467607294556 0 0 0
34 0 0 -17.95465850103082 0 0 0
46 0 0 -16.68134733503381 0 0 0
48 0 0 -16.72007639241752 0 0 0
44 0 0 -16.252176704779174 0 0 0
45 0 0 -15.709102458552586 0 0 0
42 0 0 -15.077467223603145 0 0 0
49 0 0 -13.901235814878621 0 0 0
43 0 0 -13.022591217447268 0 0 0
47 0 0 -9.927308972797835 0 0 0
