ITEM: TIMESTEP
900000
ITEM: NUMBER OF ATOMS
200
ITEM: BOX BOUNDS ff ff ff
-4.0000000000000000e+00 4.0000000000000000e+00
-4.0000000000000000e+00 4.0000000000000000e+00
-4.0000000000000000e+00 5.1000000000000000e+01
ITEM: ATOMS id x y z vx vy vz omegax omegay omegaz diameter mass 
15 -2.33748 -2.50004 -2.49595 -0.474893 -0.855611 0.298102 -0.105509 -0.452484 -0.805689 1 0.523599 
36 -1.32969 -2.48377 -2.49758 -0.284936 -0.192683 1.07889 -0.20672 -1.3341 0.392314 1 0.523599 
72 -0.0261798 -2.44833 -2.4862 0.0232769 0.00432506 0.727021 -0.166363 -1.15612 -0.279534 1 0.523599 
37 1.00125 -2.49877 -2.50118 2.6168 1.22441 0.337035 -0.441177 -0.159941 -0.667015 1 0.523599 
3 2.48329 -2.49982 -2.47701 0.422728 0.570225 -0.379719 -0.472381 0.420438 0.00804712 1 0.523599 
17 -2.24575 -1.41645 -2.49933 -0.332192 0.873783 -0.785522 0.325883 -0.21175 -0.154191 1 0.523599 
14 -1.23548 -1.47516 -2.49119 0.736403 0.152394 0.523118 -0.228561 -0.843173 -1.4413 1 0.523599 
33 0.774489 -1.51861 -2.46127 0.407578 0.0570447 -0.482791 -0.101641 0.879585 -0.211229 1 0.523599 
29 1.738 -1.80784 -2.49285 -0.562509 -0.535146 0.650962 -0.405557 -0.152638 -0.130192 1 0.523599 
66 -0.207744 -1.32999 -2.49835 -0.281757 0.721071 0.837337 -0.249864 0.592983 -0.795455 1 0.523599 
18 1.55168 -0.768068 -2.49729 0.6 0.775725 0.489368 -0.107655 0.0196712 0.0453065 1 0.523599 
42 2.50032 -1.13241 -2.50081 -0.264004 1.13977 0.976529 -0.157077 0.323209 -0.0639882 1 0.523599 
28 -2.4878 -0.386598 -2.49248 0.435014 -1.83124 -2.50801 -0.905399 0.0220878 -0.377846 1 0.523599 
35 -0.760998 -0.446917 -2.50075 0.0804871 2.21246 0.0987628 -0.646108 -0.385335 -0.0656937 1 0.523599 
10 0.462763 -0.328388 -2.49552 1.21396 -1.03917 -0.545876 0.89037 -0.072591 -0.233218 1 0.523599 
47 2.4847 -0.130061 -2.50003 0.0333129 -0.709069 0.649611 0.236816 0.0928197 -0.66333 1 0.523599 
31 -1.6569 0.244023 -2.49608 0.0330365 0.194122 0.876304 -0.260907 0.331839 -0.289296 1 0.523599 
9 -0.308365 0.463848 -2.49788 0.306623 0.545482 -0.295026 1.24348 -1.25512 -0.170435 1 0.523599 
27 1.62686 0.407662 -2.48958 1.19277 0.829796 -2.37736 0.5541 0.377749 -0.0568739 1 0.523599 
21 -2.4989 0.807263 -2.46138 -1.08198 1.96225 -1.35028 -0.0864799 0.429298 -0.776404 1 0.523599 
23 -1.09648 1.08069 -2.49501 0.682517 -0.142853 0.532968 0.0671549 -0.481724 -0.295321 1 0.523599 
64 0.663425 0.693274 -2.36346 0.778062 -0.610256 0.936149 -0.793927 -2.2402 -0.655397 1 0.523599 
75 2.48874 0.824201 -2.20056 -0.409066 -0.612605 -0.668222 -0.67993 -0.559584 0.203865 1 0.523599 
26 -1.93012 1.63587 -2.49765 -0.0668725 0.588994 0.139396 0.171942 -0.0353557 0.729347 1 0.523599 
60 -0.188961 1.50925 -2.49339 0.417169 0.404879 -0.230917 -0.442832 -0.722222 -0.557325 1 0.523599 
93 1.45709 1.51576 -2.47799 -0.50498 -0.353944 -0.596358 -0.466213 -0.277471 0.242381 1 0.523599 
12 2.49725 1.77971 -2.49958 0.252675 -0.00632722 0.796648 0.526395 0.487311 -0.605816 1 0.523599 
38 -2.49459 2.49415 -2.48571 -0.550264 -0.305037 0.0199958 -0.575191 0.60816 -0.133682 1 0.523599 
30 -1.40365 2.49312 -2.48693 -0.152436 -0.364966 0.173191 -0.59828 1.53319 -0.548482 1 0.523599 
4 -0.40255 2.49892 -2.49503 1.09746 -0.673039 -1.66636 0.723054 -0.682747 0.181253 1 0.523599 
19 0.599511 2.47061 -2.49634 -0.980141 -0.402849 0.0318971 0.330878 -1.55986 -0.706151 1 0.523599 
44 1.70696 2.49594 -2.49881 -1.03619 0.635718 0.382444 -0.807144 -0.966819 -0.466131 1 0.523599 
40 -1.66735 -2.49001 -1.54102 -2.39934 -0.248561 -0.0531662 -0.163563 0.650762 -0.46993 1 0.523599 
50 -0.681753 -2.49329 -1.73147 -0.680673 -1.39778 -2.88457 0.823713 1.52294 -0.787112 1 0.523599 
84 0.712738 -2.49356 -1.54248 -1.89624 -0.098931 2.27602 0.747581 -1.18356 0.624565 1 0.523599 
20 1.69855 -2.4953 -1.76629 0.22938 -1.33853 1.24059 -0.449749 -0.24684 0.55999 1 0.523599 
97 -2.49698 -1.94613 -1.67075 -0.0356329 0.437929 -0.230505 -0.555673 0.987125 -0.21218 1 0.523599 
100 -1.62129 -1.49321 -1.47454 1.03779 -0.784932 -0.64894 0.373671 0.230424 -0.500315 1 0.523599 
90 0.0334529 -1.75533 -1.61884 0.380187 -1.02105 0.940204 -0.959426 0.440983 0.0451903 1 0.523599 
51 1.31574 -1.59213 -1.57641 0.775983 -0.332658 0.285532 0.477561 0.249274 -0.0929746 1 0.523599 
34 2.49767 -1.7926 -1.74403 -0.684695 -1.31055 0.41303 -0.226524 -1.23719 -1.79746 1 0.523599 
11 -2.48912 -0.924517 -1.62194 1.35551 -2.28044 0.22827 -0.0750895 -0.855567 -0.0382754 1 0.523599 
131 -0.754223 -1.05295 -1.70607 -0.0040815 1.05248 -1.17613 0.435918 1.05473 0.929075 1 0.523599 
25 0.576865 -0.90465 -1.63678 0.941384 -1.65805 -0.829277 -1.28324 0.164447 -0.598135 1 0.523599 
134 2.15241 -0.839313 -1.60721 1.71598 1.81722 0.783614 -0.408202 0.172736 -0.254682 1 0.523599 
8 -1.61247 -0.64134 -2.01149 -1.53322 0.377052 0.952809 1.08805 1.23095 0.941649 1 0.523599 
130 -0.165498 -0.238614 -1.72364 0.493196 1.59682 1.85671 -0.316076 1.41538 -1.2882 1 0.523599 
24 1.15756 -0.0638825 -1.7372 0.264814 -0.953184 -0.278884 -0.54585 -0.935807 -0.762308 1 0.523599 
22 -2.3224 0.197059 -1.68963 -1.5823 -0.0089397 0.194038 -0.212567 0.68024 1.17075 1 0.523599 
73 -1.02185 0.309111 -1.72192 1.63968 1.19506 -1.7581 -0.483627 0.264901 -0.73995 1 0.523599 
53 2.32556 0.138062 -1.48196 0.497164 0.451542 -0.301855 0.8833 -0.267831 1.06713 1 0.523599 
48 -1.70087 1.04476 -1.68698 0.587579 -0.154172 -0.121854 0.322047 0.703448 0.707363 1 0.523599 
95 -0.230022 0.995233 -1.6265 -0.261809 -0.147649 -1.46986 -0.162198 1.73224 -0.742963 1 0.523599 
81 1.69208 1.02456 -1.61897 -0.594243 -0.448748 0.0197065 0.669762 1.40351 -0.607324 1 0.523599 
55 -2.49999 1.82833 -1.66899 -0.319977 -0.111648 -0.926109 0.338609 0.0922136 -0.165374 1 0.523599 
63 -1.00529 1.80174 -1.79764 1.65138 -0.620972 0.254226 0.259855 0.974229 -0.887602 1 0.523599 
16 0.611655 1.64091 -1.88516 -0.3348 -0.54663 -0.996507 -1.98232 0.361713 0.979794 1 0.523599 
32 -1.6697 2.49878 -1.51718 1.14167 -0.249926 0.544578 -0.0154096 -1.03851 1.5589 1 0.523599 
79 0.102198 2.47416 -1.62838 -1.15411 -0.2729 1.4083 0.0837137 0.243617 -0.105322 1 0.523599 
46 1.13994 2.48337 -1.65582 -0.50251 0.614815 0.369929 0.0759989 1.19656 -0.192317 1 0.523599 
6 2.497 2.4992 -1.80402 -0.300543 0.657573 -0.446656 0.0855569 -0.081389 0.972347 1 0.523599 
1 -2.45187 -2.49087 -0.797915 0.317176 -1.53933 0.0607555 0.530244 -0.258172 -0.526535 1 0.523599 
2 -0.073255 -2.48658 -0.924428 -2.3186 -1.71235 2.12612 0.852718 0.927241 -0.622809 1 0.523599 
39 1.3886 -2.45905 -0.786558 3.38441 0.555779 -1.71738 1.48747 1.23265 2.03713 1 0.523599 
45 2.43313 -2.48897 -1.02757 0.241745 1.05502 0.534403 -0.178588 1.32435 -0.0490655 1 0.523599 
110 -2.47316 -1.4541 -0.774338 1.31786 -0.738938 0.446965 0.491845 0.727345 -0.674206 1 0.523599 
96 -0.777388 -1.76647 -1.00198 0.400229 -0.89002 0.736959 -0.108092 0.956799 -1.57183 1 0.523599 
92 0.65767 -1.5581 -0.784979 -0.959959 0.675744 1.21391 0.577263 0.200811 -0.18203 1 0.523599 
78 2.04252 -1.58507 -0.860272 -1.62161 0.557851 -2.37036 -0.745361 -1.44479 -0.232848 1 0.523599 
123 -0.183105 -0.925336 -0.893482 1.30846 0.768018 0.0887689 -0.0700251 0.945626 0.150971 1 0.523599 
7 1.38163 -0.811779 -0.936824 -0.396143 -1.93475 -1.24603 0.42409 -1.97534 -0.450134 1 0.523599 
49 -2.49509 -0.293641 -0.834462 0.213248 -0.593425 0.416839 -1.43772 -0.207796 1.76462 1 0.523599 
122 -1.34278 -0.596534 -1.02995 1.46998 0.660734 -0.666215 0.317317 0.811857 -0.728568 1 0.523599 
133 0.471255 -0.0747791 -0.953621 -0.423505 0.967576 0.993623 -2.40661 0.315218 0.0712705 1 0.523599 
145 -1.65659 0.361004 -0.896433 -1.04326 -1.03963 0.0280643 1.02914 -2.72089 0.675792 1 0.523599 
94 -0.520411 0.129667 -0.863276 -0.851359 -0.474127 -0.877669 -1.41793 -0.630528 0.339979 1 0.523599 
137 1.55256 0.185729 -0.834 -0.58625 -0.00023477 0.422874 0.246506 -0.636833 -0.0631095 1 0.523599 
5 -2.49259 0.970751 -1.0683 0.906466 -1.09686 -2.74789 0.159011 0.94908 -1.01818 1 0.523599 
69 -0.987021 1.10925 -0.955832 1.03176 -0.728481 -0.370542 0.592654 0.160254 -0.848406 1 0.523599 
147 0.74853 0.836223 -1.27559 3.05548 0.313612 -2.54264 -0.696412 -1.68642 -0.62243 1 0.523599 
77 -1.83768 1.71152 -0.919996 0.920429 -1.59886 -1.55693 -1.20954 -0.697431 0.423878 1 0.523599 
71 1.01627 1.75951 -0.973723 -1.85643 -1.18566 -2.4743 0.00678443 1.20122 -0.341507 1 0.523599 
82 2.48218 1.62735 -1.28732 0.600471 0.968781 -0.0303664 1.32424 -0.441663 0.955503 1 0.523599 
52 -2.4988 2.49547 -0.919095 -0.250096 0.0426148 -1.67106 0.70044 -0.54469 -0.950083 1 0.523599 
62 -0.741834 2.47226 -1.0905 -1.63941 1.02605 -2.03433 -0.402006 0.749253 -0.158107 1 0.523599 
65 1.89575 2.48008 -0.988785 -0.561574 0.0623324 0.844602 -1.80665 0.665184 0.308907 1 0.523599 
86 -1.45387 -2.43187 -0.536302 -0.205455 1.18461 -0.134601 -1.48042 0.878518 0.372907 1 0.523599 
99 0.537901 -2.39816 -0.109754 -1.4312 0.429837 1.60012 -1.62425 1.27314 0.760658 1 0.523599 
57 -1.50709 -1.38816 -0.423585 -1.21522 2.08959 -0.610626 -1.15204 -1.06098 0.701383 1 0.523599 
144 -0.185065 -1.6655 -0.2022 1.91904 0.502068 -0.772113 -0.472143 -0.534919 2.38914 1 0.523599 
74 -1.37491 -0.285796 -0.0729548 -0.0439433 1.25193 0.361771 0.414515 -0.744631 1.20989 1 0.523599 
67 0.829439 -0.531204 -0.117552 0.966195 0.374957 -0.524479 0.737661 0.496441 -0.459737 1 0.523599 
115 2.37108 -0.375338 -0.50086 0.0631301 -0.250289 -0.467209 0.811704 0.579568 1.06578 1 0.523599 
43 -2.45231 0.468135 -0.182384 -3.73806 0.771449 1.08152 1.46082 -2.0479 -1.30933 1 0.523599 
149 0.850253 0.645143 -0.250552 0.907774 1.02019 -4.43174 0.65691 -0.035657 -0.815152 1 0.523599 
112 -0.00699055 1.05396 -0.628894 -0.166494 4.77759 -0.770153 0.103039 -0.0697951 -0.849705 1 0.523599 
59 1.67143 1.22991 -0.42273 0.223535 -0.696766 -0.672411 -0.729123 -0.719165 -0.417224 1 0.523599 
76 2.49398 0.692976 -0.665247 -0.29068 0.977891 2.83898 -0.491589 0.0247887 1.06295 1 0.523599 
87 -2.48932 1.48886 -0.190638 0.155361 -2.99802 -1.43093 0.25666 -0.530892 1.22802 1 0.523599 
117 -0.460366 1.87514 -0.28396 1.44468 -1.33726 -1.88167 -0.225908 0.0181486 1.05264 1 0.523599 
143 -1.47857 2.49486 -0.400266 -1.40183 -0.0215462 -0.284144 0.944213 -1.33528 -0.154105 1 0.523599 
13 0.271899 2.49756 -0.641857 -1.67097 -0.225396 1.14982 0.464042 0.00606213 -1.14489 1 0.523599 
54 1.21997 2.44336 -0.223623 0.00863623 -0.642123 1.28256 1.1847 0.695637 -1.51462 1 0.523599 
129 2.49398 2.49722 -0.16047 -0.453698 -0.565922 -1.36845 1.3276 -0.201868 -0.883591 1 0.523599 
128 -2.38985 -2.48838 0.204771 0.41582 -1.10516 0.0866799 -0.495632 -1.1126 0.309588 1 0.523599 
192 -1.29073 -2.08597 0.397341 -0.403364 3.19942 0.656167 -0.200246 -1.32939 -2.31169 1 0.523599 
91 -0.342675 -2.47801 0.410427 0.168122 -0.794212 0.757381 -0.83969 -0.49237 -0.849025 1 0.523599 
61 1.49769 -2.41418 0.235296 -6.5211 0.107496 1.5874 -0.416593 -0.468817 0.172398 1 0.523599 
83 2.49212 -2.43948 -0.0311071 2.1886 -1.52052 -2.28334 0.777301 -0.0896735 -0.437755 1 0.523599 
150 -2.47414 -1.48695 0.228383 -1.54625 0.079232 -0.311474 -1.85885 1.89859 0.220799 1 0.523599 
106 1.33332 -1.43398 -0.0447031 0.171927 0.173541 0.465794 -0.649915 -2.52384 -0.298484 1 0.523599 
88 2.47435 -1.40063 0.0522776 0.115236 0.561037 1.23821 -0.731853 -0.256951 1.10733 1 0.523599 
41 -1.63064 -1.02765 0.548243 0.757006 -1.97073 0.244176 1.30216 -0.401723 2.70807 1 0.523599 
58 0.40807 -1.22931 0.500806 0.0799015 0.12388 0.18059 -1.17097 1.70385 1.51894 1 0.523599 
98 -2.39395 -0.488073 0.155542 -0.950366 -1.03678 -0.403982 0.676157 -1.47849 0.91474 1 0.523599 
116 -0.165838 -0.416803 -0.0172099 4.17178 3.70006 -1.71851 -2.31544 -0.90107 0.779504 1 0.523599 
146 2.40085 -0.465885 0.514487 2.25121 -0.916449 0.27803 -0.673568 -2.02719 0.851552 1 0.523599 
103 -0.572814 0.566361 0.0550031 0.377469 2.29565 0.453126 -0.565095 -2.01878 -1.52933 1 0.523599 
126 1.70327 0.191322 0.198436 -1.26747 -1.31579 0.749211 -1.86519 -0.00741622 -1.31185 1 0.523599 
101 -1.5246 0.890575 -0.0458042 -4.10509 1.41332 0.276197 1.29818 1.82991 -0.450225 1 0.523599 
56 -1.71052 1.81025 0.36144 -3.20646 -2.00925 1.08871 -1.44326 -3.26741 -1.35813 1 0.523599 
102 0.603047 1.6328 -0.0390152 1.18851 -0.550982 0.365495 -0.144528 -1.77025 0.319249 1 0.523599 
107 2.47498 1.44178 0.181383 -0.877947 -0.336942 0.380799 -2.4751 -1.28221 0.0693098 1 0.523599 
80 -2.48187 2.47366 0.0953181 -2.79504 -0.936382 0.187706 1.27262 0.592282 0.439922 1 0.523599 
89 -0.923679 2.4426 0.442203 -0.571211 -2.61766 -0.736074 -0.661859 0.913298 0.0639897 1 0.523599 
109 0.0823951 2.49414 0.395458 2.53358 -2.34409 0.316746 1.89137 0.818126 0.708548 1 0.523599 
170 1.02949 -2.30273 1.19599 -4.03005 -2.34213 -3.28374 2.90541 3.42659 0.0829981 1 0.523599 
160 2.28343 -2.44446 1.10998 -1.51242 -1.92182 -3.047 0.166409 1.65156 -0.561968 1 0.523599 
136 -2.40654 -1.92691 1.18819 -3.73267 -1.15758 -0.0238383 -1.99692 0.182889 1.06373 1 0.523599 
85 1.8921 -1.53937 0.92429 -1.25356 -0.874909 -0.62214 -0.119307 -0.499309 -1.05214 1 0.523599 
120 -2.45775 -0.905767 1.13302 2.12635 -3.7359 -1.14405 3.55504 -1.88177 -2.88792 1 0.523599 
183 -0.651113 -1.19212 0.721884 0.261469 0.380713 -1.19752 0.311066 0.133295 0.429025 1 0.523599 
175 1.3931 -0.674145 0.708461 -3.96751 0.61278 -6.49648 -2.78929 0.749436 2.35824 1 0.523599 
138 -1.50371 -0.131478 1.02206 -2.13109 0.790341 3.79877 1.13982 -0.682228 0.327092 1 0.523599 
124 -0.482951 -0.069368 0.870831 1.21741 -0.61947 -4.02784 1.86074 2.89662 -0.587566 1 0.523599 
118 -2.48445 0.2732 0.850834 -2.64069 -4.1841 -2.23122 -0.0440005 -1.29468 -0.269565 1 0.523599 
108 0.706327 0.0859201 0.663839 -1.60387 -0.285501 1.39611 -2.17732 -1.76962 -0.335401 1 0.523599 
68 -2.49927 1.28907 0.809754 -2.61232 -0.142609 -2.67853 -0.753002 0.122539 0.307836 1 0.523599 
182 -1.54696 0.911038 1.03998 0.784144 0.21587 1.85528 0.431369 -1.88322 1.13294 1 0.523599 
155 0.248389 0.98501 0.638233 -1.44433 0.942225 -4.04119 4.88726 2.19178 -1.59976 1 0.523599 
148 1.39461 1.26153 0.913648 -1.35988 2.38156 0.682805 -1.51398 -0.746149 -0.324705 1 0.523599 
127 2.49572 0.74179 0.911554 -2.11675 -1.1692 -3.56677 -1.11984 -1.51139 -0.315496 1 0.523599 
135 -0.748474 1.44676 0.65826 -0.405441 2.24936 1.49185 -1.91055 0.234598 -1.26474 1 0.523599 
121 0.507037 1.92956 1.20507 6.4955 -1.03195 -3.34056 -2.5359 -2.74845 -1.54955 1 0.523599 
125 -2.49049 2.25601 1.0708 -0.927238 0.573491 -5.67003 -0.639024 -3.35014 -0.561157 1 0.523599 
105 1.35107 2.28078 0.768981 4.99895 2.09455 0.535189 1.16763 0.686087 2.58085 1 0.523599 
70 2.45955 2.43172 0.842209 -1.23925 -1.20409 -0.424131 1.58293 -1.3674 0.172069 1 0.523599 
166 -1.05045 -2.46617 1.33583 -2.30489 2.34785 0.255032 -0.848235 2.28613 -0.238536 1 0.523599 
174 0.0304639 -2.04143 1.29902 -0.202211 -7.54394 -1.14445 -0.416362 -0.299103 5.42004 1 0.523599 
195 -1.55679 -1.45518 1.49184 -0.72697 0.555673 -1.45045 3.65343 -3.32639 2.48802 1 0.523599 
139 2.43085 -1.58555 1.7606 -2.47286 -1.56418 -2.07657 3.88583 -5.62779 -2.65866 1 0.523599 
132 0.80577 -1.30972 1.57776 -2.00622 2.90351 2.17426 -0.0759917 0.399417 -0.816046 1 0.523599 
193 -0.0330458 -0.147073 1.84937 1.04773 2.35989 -1.8039 -1.17639 -0.33771 -0.283807 1 0.523599 
187 0.955586 -0.311904 1.57753 4.79235 -0.282235 -0.445904 -0.745084 -1.68255 -2.95132 1 0.523599 
113 2.02738 -0.657477 1.48573 -4.05223 13.1665 -0.092267 1.32488 -2.87541 1.94056 1 0.523599 
140 1.69592 0.345459 1.37991 -0.281082 -2.95654 -2.94087 1.88551 2.45718 -1.24718 1 0.523599 
197 -0.790358 1.13223 1.72919 -2.94479 -1.55774 2.08623 -1.231 -3.97471 -3.37385 1 0.523599 
172 0.517862 0.972359 1.62023 2.03356 -3.56784 0.107728 -0.95594 5.08675 -3.34007 1 0.523599 
151 -1.53775 1.91077 1.36141 -3.83268 2.64782 2.91328 -3.37739 3.4141 -2.89362 1 0.523599 
142 2.25041 1.60453 1.43686 -2.49368 -0.694188 -5.74705 1.68523 2.05037 3.06419 1 0.523599 
111 -0.506861 2.43015 1.4226 2.52941 0.396039 -0.707567 5.30403 -5.32672 0.290183 1 0.523599 
177 -2.41352 -2.03177 2.22458 -1.43802 -5.01735 1.24674 5.36111 0.818153 -6.98029 1 0.523599 
189 0.872747 -2.47764 2.19128 -6.33121 6.31474 -2.63299 -2.31497 1.25805 -2.26436 1 0.523599 
164 2.20975 -2.41169 2.39996 7.59748 4.94659 -2.69157 -7.70559 -1.59214 -5.34825 1 0.523599 
186 -0.391533 -1.07896 2.21669 -4.77999 -1.86954 -6.4388 0.794225 1.49388 -5.55046 1 0.523599 
178 1.37913 -1.16439 2.45141 -0.728106 -2.90279 3.50387 4.31582 -1.13385 -2.66349 1 0.523599 
153 -1.17516 -0.448856 2.20757 -1.0185 -7.03359 -3.67713 -6.28588 2.44819 5.66612 1 0.523599 
168 -2.44072 0.0322571 2.00683 -6.07001 2.16423 3.98133 3.69542 1.16712 -3.93962 1 0.523599 
104 -2.44954 1.21009 1.97554 -0.0809098 -2.93858 0.955639 -0.548632 2.85661 2.75529 1 0.523599 
114 1.30696 0.68025 2.29557 -1.30065 1.33512 4.50124 2.6813 1.80419 5.3712 1 0.523599 
141 2.27019 0.873502 2.13152 0.0223961 -1.6788 -5.92647 1.03965 0.70019 -3.01362 1 0.523599 
162 2.4644 1.81905 2.44146 -1.37995 -0.846892 4.08882 6.24641 -1.69575 1.25271 1 0.523599 
152 -2.41756 2.45036 2.15027 8.83694 -2.56497 0.82092 1.92347 -0.0614722 -4.2153 1 0.523599 
184 1.3531 2.46187 2.00709 -3.19023 -2.01535 2.99053 -0.563098 1.00784 -1.44103 1 0.523599 
200 -1.5727 -2.08869 2.99703 3.95365 0.150387 -5.88962 2.04557 -1.44493 0.598652 1 0.523599 
173 -0.481904 -2.05317 2.91114 0.859246 -3.19236 4.57375 -7.44123 -0.239247 0.714222 1 0.523599 
185 1.51916 -1.87912 3.1709 5.0762 5.52272 2.44643 2.26724 0.620208 -2.75618 1 0.523599 
163 -2.02421 -1.06927 2.65936 -14.1502 1.88882 2.06749 -0.713205 3.73309 5.46705 1 0.523599 
196 0.963877 -0.0455714 3.06289 4.06992 -0.362706 -1.03602 0.1235 0.0797069 1.71128 1 0.523599 
176 2.20209 0.121882 2.8142 1.57521 -2.98729 -2.60314 5.39986 4.60618 6.83421 1 0.523599 
179 0.0153683 0.824036 2.57668 1.93367 2.42894 3.91322 -4.02135 4.38971 -1.55955 1 0.523599 
154 -1.32615 2.50054 2.66091 3.3156 8.61917 -1.14918 -4.91615 -3.98939 2.35496 1 0.523599 
180 0.165729 2.4594 2.59991 -2.73965 3.28222 1.30949 -1.66187 -3.68536 -4.04614 1 0.523599 
194 1.48779 2.41583 3.1504 3.89139 -1.1445 3.69945 -1.42494 6.45471 -3.29476 1 0.523599 
119 -1.79329 -1.33712 3.83523 5.02937 3.25675 4.55752 -2.99705 -6.32268 -1.83284 1 0.523599 
169 -2.48502 0.858143 3.82447 2.67461 -6.24057 3.05479 -1.65835 -2.94421 -8.30099 1 0.523599 
158 -1.15622 0.819287 3.23884 6.76172 -3.47118 0.386364 -5.31481 5.66351 0.523357 1 0.523599 
165 1.37473 1.39347 3.24196 1.03994 -1.58571 3.10622 0.723097 2.12694 0.0216802 1 0.523599 
156 2.47136 -2.13128 3.96113 1.24328 -2.19773 4.65599 4.74906 -3.05835 -1.56344 1 0.523599 
199 1.33107 -1.93399 4.23241 0.922845 -1.24768 -4.99255 -2.90357 -2.23897 -0.00454199 1 0.523599 
157 2.09494 -0.966607 4.06647 -11.1908 -2.60218 4.85591 1.38997 -2.43525 3.04029 1 0.523599 
198 0.838357 1.00524 4.02609 -3.0696 7.71189 1.06195 2.98359 -0.984219 -1.22856 1 0.523599 
188 2.11402 1.7592 4.46678 -5.69004 -7.05247 -5.70983 0.054555 -3.23955 8.19153 1 0.523599 
159 0.513365 2.33558 3.96933 -1.48357 -8.97868 2.185 1.525 -0.687195 -1.43919 1 0.523599 
167 -1.99565 -1.37278 4.88969 -2.19236 -5.2786 4.99054 1.81652 -1.06183 0.381432 1 0.523599 
190 -1.26651 -0.194503 4.88504 16.8911 -3.25634 -2.39751 -0.960019 6.04706 2.42686 1 0.523599 
181 -1.28093 2.47542 5.78958 4.85481 2.67211 6.24681 -3.93133 -5.42028 2.5599 1 0.523599 
191 -1.63847 2.18164 6.78023 -2.71646 15.4074 -13.2978 2.71965 -3.44339 -0.559668 1 0.523599 
171 1.90678 -1.58893 7.99157 13.5177 12.5294 -9.46185 -1.89007 2.25918 -7.81091 1 0.523599 
161 2.31924 1.25553 8.50444 -4.47019 -1.24506 2.48738 2.97851 0.878762 0.316603 1 0.523599 
ITEM: TIMESTEP
900001
ITEM: NUMBER OF ATOMS
200
ITEM: BOX BOUNDS ff ff ff
-4.0000000000000000e+00 4.0000000000000000e+00
-4.0000000000000000e+00 4.0000000000000000e+00
-4.0000000000000000e+00 5.1000000000000000e+01
ITEM: ATOMS id x y z vx vy vz omegax omegay omegaz diameter mass 
15 -2.33749 -2.50005 -2.49595 -0.474455 -0.853906 0.297829 -0.104632 -0.452484 -0.803495 1 0.523599 
36 -1.32969 -2.48377 -2.49757 -0.284936 -0.192683 1.07879 -0.20672 -1.3341 0.392314 1 0.523599 
72 -0.0261795 -2.44833 -2.48619 0.0232769 0.00432506 0.726923 -0.166363 -1.15612 -0.279534 1 0.523599 
37 1.00127 -2.49876 -2.50118 2.61545 1.22391 0.359141 -0.443686 -0.153202 -0.667015 1 0.523599 
3 2.4833 -2.49981 -2.47701 0.422728 0.570225 -0.379817 -0.472381 0.420438 0.00804712 1 0.523599 
17 -2.24575 -1.41644 -2.49934 -0.332192 0.873783 -0.78562 0.325883 -0.21175 -0.154191 1 0.523599 
14 -1.23547 -1.47516 -2.49119 0.736403 0.152394 0.52302 -0.228561 -0.843173 -1.4413 1 0.523599 
33 0.774494 -1.51861 -2.46128 0.407578 0.0570447 -0.482889 -0.101641 0.879585 -0.211229 1 0.523599 
29 1.738 -1.80785 -2.49284 -0.562509 -0.535146 0.650864 -0.405557 -0.152638 -0.130192 1 0.523599 
66 -0.207747 -1.32998 -2.49834 -0.281757 0.721071 0.837239 -0.249864 0.592983 -0.795455 1 0.523599 
18 1.55169 -0.768061 -2.49729 0.6 0.775725 0.48927 -0.107655 0.0196712 0.0453065 1 0.523599 
42 2.50031 -1.13239 -2.5008 -0.269516 1.13869 0.990504 -0.159729 0.324187 -0.0667561 1 0.523599 
28 -2.48779 -0.386616 -2.49251 0.435014 -1.83124 -2.50811 -0.905399 0.0220878 -0.377846 1 0.523599 
35 -0.760997 -0.446895 -2.50075 0.0801225 2.21797 0.103657 -0.648581 -0.385247 -0.0661663 1 0.523599 
10 0.462776 -0.328398 -2.49553 1.22161 -1.03972 -0.555279 0.888292 -0.0723176 -0.23494 1 0.523599 
47 2.4847 -0.130068 -2.50002 0.0333194 -0.708774 0.649308 0.238292 0.092787 -0.66333 1 0.523599 
31 -1.6569 0.244025 -2.49607 0.0330365 0.194122 0.876206 -0.260907 0.331839 -0.289296 1 0.523599 
9 -0.308362 0.463853 -2.49788 0.306623 0.545482 -0.295124 1.24348 -1.25512 -0.170435 1 0.523599 
27 1.62687 0.40767 -2.4896 1.19093 0.82871 -2.37753 0.555513 0.375407 -0.057711 1 0.523599 
21 -2.49891 0.807283 -2.4614 -1.08359 1.9664 -1.35591 -0.0856164 0.427944 -0.777672 1 0.523599 
23 -1.09647 1.08069 -2.495 0.682517 -0.142853 0.53287 0.0671549 -0.481724 -0.295321 1 0.523599 
64 0.663432 0.693267 -2.36345 0.778062 -0.610256 0.936051 -0.793927 -2.2402 -0.655397 1 0.523599 
75 2.48874 0.824195 -2.20056 -0.407222 -0.61152 -0.668245 -0.678517 -0.561926 0.203027 1 0.523599 
26 -1.93012 1.63588 -2.49764 -0.0668725 0.588994 0.139298 0.171942 -0.0353557 0.729347 1 0.523599 
60 -0.188957 1.50926 -2.49339 0.417169 0.404879 -0.231015 -0.442832 -0.722222 -0.557325 1 0.523599 
93 1.45708 1.51575 -2.47799 -0.50498 -0.353944 -0.596456 -0.466213 -0.277471 0.242381 1 0.523599 
12 2.49725 1.77971 -2.49958 0.252675 -0.00632722 0.79655 0.526395 0.487311 -0.605816 1 0.523599 
38 -2.4946 2.49415 -2.48571 -0.550264 -0.305037 0.0198978 -0.575191 0.60816 -0.133682 1 0.523599 
30 -1.40365 2.49312 -2.48693 -0.152436 -0.364966 0.173093 -0.59828 1.53319 -0.548482 1 0.523599 
4 -0.402539 2.49891 -2.49504 1.09746 -0.673039 -1.66646 0.723054 -0.682747 0.181253 1 0.523599 
19 0.599501 2.4706 -2.49634 -0.986554 -0.402646 0.0216423 0.329377 -1.55936 -0.705193 1 0.523599 
44 1.70695 2.49594 -2.4988 -1.03619 0.635718 0.382346 -0.807144 -0.966819 -0.466131 1 0.523599 
40 -1.66737 -2.49001 -1.54102 -2.39934 -0.248561 -0.0532642 -0.163563 0.650762 -0.46993 1 0.523599 
50 -0.68176 -2.49331 -1.7315 -0.680673 -1.39778 -2.88467 0.823713 1.52294 -0.787112 1 0.523599 
84 0.712719 -2.49356 -1.54246 -1.89506 -0.0992217 2.27491 0.748444 -1.18387 0.625666 1 0.523599 
20 1.69855 -2.49531 -1.76628 0.235692 -1.3527 1.23721 -0.451103 -0.247123 0.558609 1 0.523599 
97 -2.49698 -1.94612 -1.67075 -0.0356329 0.437929 -0.230603 -0.555673 0.987125 -0.21218 1 0.523599 
100 -1.62128 -1.49322 -1.47455 1.03125 -0.787764 -0.647381 0.374041 0.230813 -0.49819 1 0.523599 
90 0.0334567 -1.75534 -1.61883 0.380187 -1.02105 0.940106 -0.959426 0.440983 0.0451903 1 0.523599 
51 1.31575 -1.59214 -1.57641 0.769671 -0.318486 0.288713 0.476207 0.248991 -0.0943557 1 0.523599 
34 2.49766 -1.79262 -1.74403 -0.684695 -1.31055 0.412932 -0.226524 -1.23719 -1.79746 1 0.523599 
11 -2.48911 -0.92454 -1.62194 1.35543 -2.27556 0.221129 -0.0771331 -0.855356 -0.038105 1 0.523599 
131 -0.754223 -1.05294 -1.70608 0.00815453 1.04611 -1.16645 0.43893 1.05572 0.931249 1 0.523599 
25 0.576875 -0.904667 -1.63679 0.941384 -1.65805 -0.829375 -1.28324 0.164447 -0.598135 1 0.523599 
134 2.15243 -0.839295 -1.60721 1.71598 1.81722 0.783516 -0.408202 0.172736 -0.254682 1 0.523599 
8 -1.61249 -0.641336 -2.01148 -1.53869 0.379795 0.950487 1.08843 1.23215 0.94217 1 0.523599 
130 -0.165493 -0.238598 -1.72362 0.485552 1.59737 1.86592 -0.318153 1.41565 -1.28992 1 0.523599 
24 1.15756 -0.0638921 -1.73721 0.264814 -0.953184 -0.278982 -0.54585 -0.935807 -0.762308 1 0.523599 
22 -2.32241 0.197059 -1.68962 -1.58068 -0.0130937 0.199477 -0.211704 0.678886 1.16948 1 0.523599 
73 -1.02183 0.309123 -1.72194 1.63968 1.19506 -1.7582 -0.483627 0.264901 -0.73995 1 0.523599 
53 2.32557 0.138066 -1.48196 0.497164 0.451542 -0.301953 0.8833 -0.267831 1.06713 1 0.523599 
48 -1.70086 1.04476 -1.68698 0.587579 -0.154172 -0.121952 0.322047 0.703448 0.707363 1 0.523599 
95 -0.230024 0.995231 -1.62651 -0.261809 -0.147649 -1.46996 -0.162198 1.73224 -0.742963 1 0.523599 
81 1.69207 1.02456 -1.61897 -0.594243 -0.448748 0.0196085 0.669762 1.40351 -0.607324 1 0.523599 
55 -2.5 1.82832 -1.669 -0.319977 -0.111648 -0.926207 0.338609 0.0922136 -0.165374 1 0.523599 
63 -1.00527 1.80173 -1.79764 1.65138 -0.620972 0.254128 0.259855 0.974229 -0.887602 1 0.523599 
16 0.611652 1.6409 -1.88517 -0.3348 -0.54663 -0.996605 -1.98232 0.361713 0.979794 1 0.523599 
32 -1.66969 2.49878 -1.51717 1.14167 -0.249926 0.54448 -0.0154096 -1.03851 1.5589 1 0.523599 
79 0.102186 2.47416 -1.62837 -1.15411 -0.2729 1.40821 0.0837137 0.243617 -0.105322 1 0.523599 
46 1.13993 2.48337 -1.65581 -0.496097 0.614612 0.379988 0.0744981 1.19706 -0.191359 1 0.523599 
6 2.497 2.49921 -1.80402 -0.300543 0.657573 -0.446754 0.0855569 -0.081389 0.972347 1 0.523599 
1 -2.45187 -2.49088 -0.797914 0.317176 -1.53933 0.0606575 0.530244 -0.258172 -0.526535 1 0.523599 
2 -0.0732782 -2.4866 -0.924406 -2.31979 -1.71206 2.12704 0.853581 0.926923 -0.621708 1 0.523599 
39 1.38863 -2.45904 -0.786576 3.38441 0.555779 -1.71748 1.48747 1.23265 2.03713 1 0.523599 
45 2.43313 -2.48896 -1.02756 0.249837 1.03299 0.517387 -0.178599 1.32458 -0.0467663 1 0.523599 
110 -2.47314 -1.45411 -0.774334 1.31794 -0.74382 0.45391 0.489802 0.727556 -0.674035 1 0.523599 
96 -0.777384 -1.76648 -1.00197 0.400229 -0.89002 0.736861 -0.108092 0.956799 -1.57183 1 0.523599 
92 0.657661 -1.5581 -0.784967 -0.959959 0.675744 1.21382 0.577263 0.200811 -0.18203 1 0.523599 
78 2.0425 -1.58506 -0.860296 -1.63007 0.578731 -2.36601 -0.748012 -1.4464 -0.230301 1 0.523599 
123 -0.183092 -0.925328 -0.893481 1.30846 0.768018 0.0886709 -0.0700251 0.945626 0.150971 1 0.523599 
7 1.38162 -0.811798 -0.936836 -0.396143 -1.93475 -1.24612 0.42409 -1.97534 -0.450134 1 0.523599 
49 -2.49508 -0.293647 -0.834458 0.213248 -0.593425 0.416741 -1.43772 -0.207796 1.76462 1 0.523599 
122 -1.34277 -0.596528 -1.02995 1.46998 0.660734 -0.666313 0.317317 0.811857 -0.728568 1 0.523599 
133 0.471251 -0.0747695 -0.953611 -0.423505 0.967576 0.993525 -2.40661 0.315218 0.0712705 1 0.523599 
145 -1.6566 0.360994 -0.896432 -1.04326 -1.03963 0.0279663 1.02914 -2.72089 0.675792 1 0.523599 
94 -0.52042 0.129662 -0.863285 -0.851359 -0.474127 -0.877767 -1.41793 -0.630528 0.339979 1 0.523599 
137 1.55255 0.185729 -0.833996 -0.58625 -0.00023477 0.422776 0.246506 -0.636833 -0.0631095 1 0.523599 
5 -2.49258 0.97074 -1.06833 0.904153 -1.09951 -2.74808 0.160622 0.947678 -1.01829 1 0.523599 
69 -0.987011 1.10924 -0.955836 1.03176 -0.728481 -0.37064 0.592654 0.160254 -0.848406 1 0.523599 
147 0.748561 0.836226 -1.27561 3.05548 0.313612 -2.54273 -0.696412 -1.68642 -0.62243 1 0.523599 
77 -1.83767 1.7115 -0.920011 0.922742 -1.59621 -1.55693 -1.20793 -0.698834 0.42377 1 0.523599 
71 1.01625 1.7595 -0.973748 -1.85643 -1.18566 -2.47439 0.00678443 1.20122 -0.341507 1 0.523599 
82 2.48219 1.62736 -1.28732 0.600471 0.968781 -0.0304644 1.32424 -0.441663 0.955503 1 0.523599 
52 -2.49881 2.49547 -0.919112 -0.250096 0.0426148 -1.67116 0.70044 -0.54469 -0.950083 1 0.523599 
62 -0.74185 2.47227 -1.09052 -1.63941 1.02605 -2.03443 -0.402006 0.749253 -0.158107 1 0.523599 
65 1.89574 2.48008 -0.988776 -0.561574 0.0623324 0.844504 -1.80665 0.665184 0.308907 1 0.523599 
86 -1.45388 -2.43186 -0.536303 -0.205455 1.18461 -0.134699 -1.48042 0.878518 0.372907 1 0.523599 
99 0.537887 -2.39815 -0.109738 -1.4312 0.429837 1.60002 -1.62425 1.27314 0.760658 1 0.523599 
57 -1.5071 -1.38813 -0.423591 -1.21522 2.08959 -0.610724 -1.15204 -1.06098 0.701383 1 0.523599 
144 -0.185046 -1.66549 -0.202208 1.91904 0.502068 -0.772211 -0.472143 -0.534919 2.38914 1 0.523599 
74 -1.37491 -0.285784 -0.0729512 -0.0439433 1.25193 0.361673 0.414515 -0.744631 1.20989 1 0.523599 
67 0.829448 -0.5312 -0.117557 0.966195 0.374957 -0.524577 0.737661 0.496441 -0.459737 1 0.523599 
115 2.37108 -0.37534 -0.500865 0.0631301 -0.250289 -0.467307 0.811704 0.579568 1.06578 1 0.523599 
43 -2.45234 0.468142 -0.182373 -3.73806 0.771449 1.08142 1.46082 -2.0479 -1.30933 1 0.523599 
149 0.850263 0.645153 -0.250596 0.907774 1.02019 -4.43184 0.65691 -0.035657 -0.815152 1 0.523599 
112 -0.00699218 1.05401 -0.628902 -0.160209 4.76546 -0.774971 0.104588 -0.0696553 -0.848002 1 0.523599 
59 1.67143 1.22991 -0.422737 0.223535 -0.696766 -0.672509 -0.729123 -0.719165 -0.417224 1 0.523599 
76 2.49398 0.692986 -0.665219 -0.29068 0.977891 2.83888 -0.491589 0.0247887 1.06295 1 0.523599 
87 -2.48932 1.48883 -0.190652 0.155361 -2.99802 -1.43102 0.25666 -0.530892 1.22802 1 0.523599 
117 -0.460352 1.87513 -0.283979 1.43839 -1.32513 -1.87705 -0.224359 0.0182885 1.05434 1 0.523599 
143 -1.47858 2.49486 -0.400268 -1.40183 -0.0215462 -0.284242 0.944213 -1.33528 -0.154105 1 0.523599 
13 0.271882 2.49755 -0.641845 -1.67097 -0.225396 1.14972 0.464042 0.00606213 -1.14489 1 0.523599 
54 1.21997 2.44336 -0.223611 0.00863623 -0.642123 1.28246 1.1847 0.695637 -1.51462 1 0.523599 
129 2.49398 2.49722 -0.160483 -0.453698 -0.565922 -1.36855 1.3276 -0.201868 -0.883591 1 0.523599 