ITEM: TIMESTEP
3300000
ITEM: NUMBER OF ATOMS
800
ITEM: BOX BOUNDS ff ff ff
-5.7400000000000002e+00 5.7400000000000002e+00
-5.7400000000000002e+00 5.7400000000000002e+00
-5.7400000000000002e+00 5.1000000000000000e+01
ITEM: ATOMS id x y z vx vy vz omegax omegay omegaz diameter mass 
46 -4.2401 -4.23995 -4.23999 -0.0223636 0.00751287 0.00677426 0.0143698 -0.00133661 -0.00685873 1 0.523599 
33 -3.24017 -4.24 -4.24008 -0.00584557 -0.0188406 -0.0449408 0.0156964 0.011851 0.00448485 1 0.523599 
106 -2.24025 -4.24004 -4.24001 -0.0571627 -0.0342846 -0.0323646 -0.0876748 -0.016846 -0.0146079 1 0.523599 
65 -1.24037 -4.24006 -4.24005 -0.0399324 -0.000517518 -0.0194081 0.000689154 0.000369911 0.00212213 1 0.523599 
60 -0.240399 -4.24008 -4.24003 0.0608294 -0.0212984 -0.028532 0.00119974 0.0180634 -0.0162994 1 0.523599 
10 0.759569 -4.24005 -4.24011 0.0458221 -0.0068304 0.049761 -0.00370848 0.030784 -0.019285 1 0.523599 
68 1.75948 -4.24007 -4.24 0.0789014 0.0115591 0.0296464 -0.00114465 -0.00180168 -0.0160082 1 0.523599 
42 3.1739 -4.23996 -4.24007 0.00997557 -0.0378565 -0.0117947 0.0461278 0.00953457 -0.0464488 1 0.523599 
96 4.23644 -4.24003 -4.24005 -0.000245965 0.0370266 0.0301062 0.00514606 0.00505998 -0.00428209 1 0.523599 
183 -4.24005 -3.23844 -4.24004 -0.0295383 -0.0195964 0.112907 -0.00871687 -0.027759 0.0313467 1 0.523599 
224 -2.67978 -3.38042 -3.97954 -0.0793231 0.061566 -0.183213 0.0480816 -0.0357857 0.00571935 1 0.523599 
167 -1.72811 -3.21798 -4.24002 0.0127923 0.0730628 -0.014846 -0.0871288 -0.122762 0.0138029 1 0.523599 
221 -0.740383 -3.37411 -4.24001 0.0906136 -0.0399383 0.00138528 -0.0015911 0.0606384 -0.0542605 1 0.523599 
82 0.259565 -3.37408 -4.24001 0.047213 0.000321371 -0.0139432 -0.0303844 -0.0192014 0.0610075 1 0.523599 
1 1.25953 -3.37402 -4.24001 0.057791 -0.0211208 0.00198364 -7.05791e-05 0.0326472 -0.0142348 1 0.523599 
87 2.46641 -3.53291 -4.24005 0.0815608 -0.00462205 -0.0363808 -0.0192584 0.0518117 -0.000697326 1 0.523599 
166 3.37094 -3.32973 -3.86542 0.0446758 0.00394758 -0.0868698 0.0339849 -0.0333323 0.00793297 1 0.523599 
160 -3.38441 -2.72033 -4.24003 0.0188209 0.0691564 0.0733764 -0.0910815 0.105582 -0.0206521 1 0.523599 
12 -2.42792 -2.42854 -4.24005 -0.0580141 0.0775107 -0.126881 -0.26085 -0.0583656 0.00103037 1 0.523599 
101 -0.983059 -2.40413 -4.24018 0.0435097 -0.0365961 -0.00383246 -0.00348228 -0.0536999 0.00463163 1 0.523599 
142 0.665968 -2.46042 -4.24008 0.0151947 0.0284927 -0.0396195 0.00313252 -0.0548717 0.00204425 1 0.523599 
24 1.96651 -2.6669 -4.24001 0.0597654 0.0339924 0.0054886 -0.00216554 -0.0257401 0.0528902 1 0.523599 
45 3.21728 -2.41545 -4.24008 -0.106569 -0.00218813 -0.039733 0.0278978 -0.0134468 0.0870941 1 0.523599 
88 4.23987 -2.98677 -4.24 0.012857 -0.0400773 0.00379369 0.013945 0.0308608 -0.00116707 1 0.523599 
50 -4.24003 -2.20276 -4.24009 0.00903999 -0.0367325 -0.0133283 -0.0836591 -0.00213392 0.0755425 1 0.523599 
119 -1.69656 -1.70332 -4.24001 0.00434417 -0.130815 -0.0148158 0.108957 -0.152322 -0.0977013 1 0.523599 
30 -0.226347 -1.75024 -4.24008 0.188117 -0.0268671 0.0414059 0.0656053 0.0193486 -0.12346 1 0.523599 
109 1.43426 -1.82032 -4.24 0.035137 0.0449791 -0.00155844 0.00654273 0.00590331 -0.0263216 1 0.523599 
178 2.43983 -1.78613 -4.23999 -0.0902825 0.0465661 -0.0070593 -0.0211426 -0.00557636 0.000261356 1 0.523599 
81 4.23977 -1.92884 -4.24001 -0.00583658 -0.0324106 -0.0285144 0.0116514 -0.0140961 0.0117255 1 0.523599 
52 -4.11691 -1.20831 -4.2387 0.146208 -0.0441132 -0.00244701 -0.00144916 0.0767065 0.0912603 1 0.523599 
67 -3.18623 -1.59385 -4.24 0.239455 0.082068 -0.0507544 -0.109897 0.244088 -0.0702995 1 0.523599 
22 0.463243 -1.02602 -4.24013 -0.0110509 0.00393389 0.0333842 0.0208321 -0.0290146 -0.0375578 1 0.523599 
78 3.37338 -1.42773 -4.24 -0.0230936 0.0367156 -0.00159649 -0.020136 -0.0417498 -0.0414627 1 0.523599 
97 -3.28916 -0.599149 -4.23989 0.0934933 0.0217958 0.0136417 0.0341618 0.140531 0.199008 1 0.523599 
62 -2.34441 -0.941504 -4.24026 -0.0563771 -0.0544091 0.0157665 0.0214195 0.0340477 0.0389535 1 0.523599 
154 -0.882251 -0.986475 -4.23989 -0.224544 0.0131318 0.0243642 -0.0217558 -0.206805 0.0343612 1 0.523599 
111 1.44175 -0.820396 -4.24 0.0182976 -0.0931046 0.0029174 0.00425974 0.0536323 0.0929534 1 0.523599 
71 2.44106 -0.786198 -4.24021 0.0341347 0.0168675 -0.0184716 -0.0519818 -0.0310543 -0.0334838 1 0.523599 
239 3.37445 -0.427778 -4.23998 0.00750265 -0.0323629 -0.0127079 0.0290939 -0.00657498 -0.0342829 1 0.523599 
47 4.24001 -0.928804 -4.24003 -0.00278191 0.00947015 0.0301428 0.0626742 -0.012961 -0.00493612 1 0.523599 
141 -4.23462 -0.215389 -4.24001 -0.000698214 -0.0102954 -0.0264973 -0.0452915 0.0216343 0.00637364 1 0.523599 
117 -2.50401 0.0456477 -4.24003 0.00112812 0.0374499 -0.0691189 0.0104046 0.0607385 -0.007709 1 0.523599 
77 -1.54504 -0.237852 -4.23999 0.0362411 0.0311904 -0.0207008 -0.035309 -0.0727434 -0.0292544 1 0.523599 
29 -0.211986 -0.244337 -4.2398 -0.153818 -0.189624 -0.0558994 0.0556771 -0.144488 -0.157564 1 0.523599 
139 0.773781 -0.0752849 -4.23997 0.0561024 -0.124154 -0.0251803 0.0477197 -0.00799953 0.191871 1 0.523599 
76 1.90664 0.0648331 -4.2402 0.0317746 0.0729209 0.00981582 0.0297268 -0.049065 0.0464758 1 0.523599 
85 4.24016 0.0725274 -4.2398 0.0100086 -0.0390003 0.00108566 0.00992191 0.0163947 -0.0150756 1 0.523599 
212 -4.24016 0.784519 -4.24011 0.0738799 -0.0518905 0.0354368 0.035059 -0.00453059 -0.0382943 1 0.523599 
18 -3.40368 0.340814 -3.91846 0.00805058 -0.0511751 0.0793697 0.00438464 -0.014004 -0.0041712 1 0.523599 
176 -1.82063 0.775908 -4.23992 0.140127 -0.0724091 -0.0157871 0.0840154 -0.019441 0.277008 1 0.523599 
149 -0.852794 0.524264 -4.23966 0.11048 -0.0176867 0.00380048 0.0593723 -0.123838 -0.159911 1 0.523599 
14 0.219297 0.757577 -4.23926 -0.334552 -0.145485 -0.0384895 0.28325 -0.252611 0.180787 1 0.523599 
70 1.23949 0.809694 -4.24002 -0.056104 0.0130726 0.0172572 -0.0130214 -0.017056 -0.0134109 1 0.523599 
40 2.46477 0.988054 -4.24011 0.0332579 0.0252775 -0.0252396 0.00397657 -0.042308 0.0126382 1 0.523599 
63 3.37415 0.572332 -4.24001 0.0534075 0.0033174 0.0505184 -0.00149572 -0.0239224 -0.0027381 1 0.523599 
66 -3.3759 1.28717 -4.24014 -0.00737736 -0.0344258 -0.0459772 -0.0986222 0.00300317 0.185197 1 0.523599 
98 -1.28383 1.61975 -4.24015 -0.248531 0.0632313 -0.102435 -0.0743191 -0.135081 0.277993 1 0.523599 
161 -0.283592 1.62198 -4.24001 -0.273123 -0.0569035 0.161725 -0.0183353 -0.174678 -0.563139 1 0.523599 
143 0.715598 1.66139 -4.23989 -0.0971533 -0.0935887 0.05663 0.128448 -0.0796356 0.13558 1 0.523599 
122 1.73911 1.67593 -4.24013 0.0470031 -0.0336962 -0.0707809 0.0770678 -0.00671288 0.0529254 1 0.523599 
120 3.3077 1.57043 -4.23959 -0.0340769 0.0879974 0.0624945 0.0279904 0.00684557 -0.0525573 1 0.523599 
103 4.23993 1.07286 -4.23969 -0.0318616 0.00604653 -0.0087192 -0.0388409 0.080417 -0.0507116 1 0.523599 
158 -4.23136 1.80932 -4.24004 0.0579731 -0.118815 0.0237701 0.113679 0.0729159 0.12986 1 0.523599 
55 -2.5436 1.84122 -4.24005 -0.202696 0.442514 -0.0580993 -0.210981 -0.209697 0.0460002 1 0.523599 
102 4.23974 2.07411 -4.23994 0.00761624 0.0692249 -0.0264458 -0.0689026 0.0119312 0.0210543 1 0.523599 
73 -4.23949 2.8092 -4.23991 -0.027713 -0.0898744 0.0513062 0.213379 -0.0626157 0.000776917 1 0.523599 
152 -3.22268 2.578 -4.24015 0.0468272 0.0735589 -0.134537 0.0147548 -0.0973366 -0.0871833 1 0.523599 
64 -1.7823 2.48944 -4.23993 0.0660124 0.0495918 -0.046431 -0.095713 -0.122465 -0.295452 1 0.523599 
175 -0.782296 2.48921 -4.24 -0.193365 0.0864787 -0.0201878 -0.0689391 -0.0160561 0.161918 1 0.523599 
48 0.216917 2.52834 -4.24003 -0.187971 0.0127133 -0.258028 0.0276617 -0.0103922 -0.157952 1 0.523599 
172 1.21733 2.52892 -4.24005 -0.0778852 -0.124438 -0.0326385 0.0460022 -0.0308872 0.017242 1 0.523599 
113 2.37905 2.44515 -4.23993 0.0505345 -0.122583 0.0206771 0.100058 0.0750047 0.00216821 1 0.523599 
34 3.37188 2.57807 -4.23997 0.145096 -0.39543 0.129398 0.245257 0.215336 0.119177 1 0.523599 
32 -3.52542 3.53102 -4.24006 0.125526 -0.0302777 0.0217417 0.0420086 -0.0139765 -0.0139204 1 0.523599 
144 -2.4886 3.29584 -4.23995 0.0804143 0.0847184 -0.0110479 -0.118053 0.156921 -0.29102 1 0.523599 
170 -1.31743 3.37472 -4.23984 -0.0218589 0.142179 -0.107934 -0.00663265 0.0036466 0.0641644 1 0.523599 
51 -0.316495 3.37412 -4.24009 -0.0968567 -0.0605361 -0.132878 0.0312092 0.0489901 -0.135515 1 0.523599 
95 0.717847 3.3951 -4.24007 0.0322837 -0.125971 0.0244405 0.0271415 -0.0226394 -0.0662915 1 0.523599 
15 1.7534 3.37361 -4.23974 0.135461 -0.0405991 -0.0093841 -0.0405619 -0.123918 0.0267711 1 0.523599 
7 2.76055 3.36979 -4.2383 -0.066057 -0.220514 0.226054 -0.183816 0.259306 0.0415921 1 0.523599 
165 4.24015 3.0742 -4.2401 -0.00605543 0.124921 0.0627759 -0.0525538 0.0573183 0.0837155 1 0.523599 
185 -4.23899 4.23996 -4.24006 0.00454413 0.0818206 -0.111859 0.035203 0.00082619 -0.00125343 1 0.523599 
36 -2.81974 4.23971 -4.24012 -0.00702313 0.0113891 0.0484862 -0.0399971 0.0348325 0.147827 1 0.523599 
123 -1.81982 4.23993 -4.24 -0.0756614 -0.0221049 0.0493614 0.00885989 -0.102533 -0.022493 1 0.523599 
8 -0.816505 4.2401 -4.23996 -0.0143831 0.0978036 -0.0166766 0.00483451 -0.00823533 -0.0412755 1 0.523599 
107 0.183421 4.24015 -4.23997 -0.00668092 -0.0530318 -0.0141641 0.012131 -0.00191689 0.000945468 1 0.523599 
74 1.25311 4.24004 -4.24003 0.116186 -0.0484711 -0.0873803 -0.00619436 -0.0583195 -0.00835313 1 0.523599 
37 2.25349 4.23972 -4.24006 -0.00204586 -0.0096886 -0.0783884 0.0120443 -0.0027948 0.0039226 1 0.523599 
128 3.25366 4.2399 -4.24013 -0.118061 0.0125374 -0.00885257 -0.0734274 -0.00258593 0.314229 1 0.523599 
23 4.23998 4.07467 -4.23996 -0.074287 0.0423942 0.0482986 -0.0758602 -0.0309235 -0.0975866 1 0.523599 
174 -4.23988 -4.23951 -3.23996 0.0458955 -0.0224009 0.112872 0.0204846 0.0752976 -0.0319241 1 0.523599 
147 -2.74035 -4.23997 -3.37401 -0.00105751 -0.00279878 -0.0708061 -0.0416163 0.0427611 -0.0232259 1 0.523599 
5 -1.74041 -4.23993 -3.37385 -0.033514 -0.0389365 0.0108253 -0.102478 -0.0690322 -0.0261974 1 0.523599 
56 -0.740402 -4.24004 -3.37404 0.0287948 0.00210232 0.00557294 0.0137285 0.0329442 -0.000933109 1 0.523599 
179 0.25974 -4.24001 -3.37407 0.0429292 0.00729106 0.0265439 0.016001 -0.0236494 -0.0107118 1 0.523599 
235 1.27907 -4.11534 -3.37151 -0.115362 0.0343406 -0.00323936 -0.114613 -0.0644116 0.111021 1 0.523599 
43 2.46653 -4.23998 -3.53291 -0.00727556 0.000451622 0.0340719 0.0146253 -0.0870663 0.0132009 1 0.523599 
25 3.4352 -4.23983 -3.27484 0.142465 -0.0204868 0.0299319 -0.076706 0.095206 -0.110397 1 0.523599 
4 -3.57339 -3.5728 -3.57397 0.0546886 -0.0704145 0.0337281 -0.0403841 0.153825 -0.00640451 1 0.523599 
182 -1.2457 -3.37043 -3.37712 0.0513669 0.0722862 0.00679109 -0.0330665 -0.116678 -0.0434443 1 0.523599 
17 -0.241282 -3.40162 -3.15521 -0.00668458 -0.0218869 0.0175969 0.0568318 -0.00327085 0.0557146 1 0.523599 
184 0.729449 -3.27998 -3.36231 -0.0231353 0.0518277 0.0580776 0.0466686 -0.0356279 -0.0239854 1 0.523599 
168 1.9107 -3.30053 -3.44187 -0.013739 -0.00475361 -0.0611769 -0.0371462 -0.051673 0.138252 1 0.523599 
11 4.24008 -3.61346 -3.46058 0.0299514 0.0309387 0.033081 0.00418162 -0.00332719 -0.00857815 1 0.523599 
219 -4.14276 -2.72066 -3.39009 -0.100387 -0.00771506 -0.0294305 0.15418 -0.122523 -0.0644354 1 0.523599 
127 -1.70409 -2.49182 -3.5529 -0.0818342 0.0959304 -0.105028 0.137126 0.100004 -0.143834 1 0.523599 
28 -0.113478 -2.52372 -3.6165 -0.0438838 -0.161855 0.0913745 -0.0372545 -0.0641621 0.0912875 1 0.523599 
116 1.32801 -2.48911 -3.49121 -0.0231052 -0.0269853 -0.0452242 -0.0227004 0.115535 0.0255286 1 0.523599 
114 2.59765 -2.57416 -3.46991 0.0331254 -0.0169806 0.0236747 0.0204651 0.0174229 -0.0506496 1 0.523599 
19 4.24001 -2.45773 -3.39142 -0.0553357 -0.00226161 -0.0848376 0.0583768 -0.035103 0.0381218 1 0.523599 
133 -4.24009 -1.72588 -3.36116 0.0553257 0.026304 0.232306 0.106847 -0.0442842 0.0273109 1 0.523599 
180 -3.31838 -2.1513 -3.42046 0.017126 0.0334935 -0.0869271 0.127589 -0.300023 -0.139985 1 0.523599 
53 -0.934747 -1.69557 -3.53641 0.0620675 -0.0122731 -0.124308 -0.0155264 -0.0185221 0.0223775 1 0.523599 
59 0.517361 -1.74984 -3.5524 -0.0746401 -0.0322547 0.0528333 0.00384311 0.0388157 -0.049459 1 0.523599 
35 3.38251 -1.94335 -3.37419 -0.107153 -0.0275307 0.0150097 0.0820471 0.118173 0.0175847 1 0.523599 
125 -2.44333 -1.68179 -3.57533 0.0750798 0.107906 0.0643405 0.00813947 -0.0105814 0.0198426 1 0.523599 
214 -0.197306 -1.02189 -3.48951 0.0868665 -0.0233662 0.0311765 0.0344918 -0.0475537 0.0270438 1 0.523599 
193 1.45251 -1.51874 -3.28411 -0.140174 0.0183382 -0.0225252 -0.0541454 0.0885414 -0.0131719 1 0.523599 
118 2.44788 -1.60873 -3.25369 -0.0210174 -0.00698745 -0.0311317 0.00576351 -0.113946 0.0420202 1 0.523599 
9 4.23997 -1.42883 -3.37395 -0.0337595 -0.0612455 -0.0636684 0.00454897 -0.0104237 0.0450074 1 0.523599 
191 -4.24012 -0.71384 -3.37311 -0.0280801 -0.00310755 0.0434815 -0.0113417 -0.131113 0.0675044 1 0.523599 
220 -2.57614 -0.732585 -3.2903 0.117892 -0.210119 0.0926109 -0.031872 0.0282246 0.053149 1 0.523599 
202 -1.61609 -0.963778 -3.55553 -0.0274795 0.000576533 0.00269633 0.0622984 -0.042453 0.067878 1 0.523599 
217 0.760564 -0.795155 -3.31373 -0.0645978 -0.0739761 0.0555138 -0.0652652 -0.0836886 0.0163663 1 0.523599 
26 2.02953 -0.703243 -3.33275 -0.0568808 0.0938049 -0.0931343 0.059244 -0.0629352 0.0752834 1 0.523599 
41 3.02571 -0.788303 -3.37488 -0.0603475 0.0218971 -0.0493756 -0.027326 0.0248124 0.046037 1 0.523599 
164 4.23994 -0.42884 -3.37401 -0.0233147 -0.0521883 0.0750485 0.0332592 0.00604191 0.00241785 1 0.523599 
297 -4.24012 0.286161 -3.37321 -0.0171463 -0.00755374 0.111831 -0.161168 -0.034248 0.0532619 1 0.523599 
247 -1.97779 0.062225 -3.3899 -0.0430936 0.0707755 0.00290411 0.0355043 -0.0564447 0.128148 1 0.523599 
198 -0.879017 -0.290193 -3.49592 -0.0194942 0.12195 0.274188 0.0849568 0.00931774 -0.0337953 1 0.523599 
121 0.128475 -0.0183803 -3.32709 -0.01542 -0.196637 -0.0130211 0.00613246 0.439096 0.263291 1 0.523599 
49 1.33826 0.014144 -3.41919 -0.0345366 0.113525 0.0431218 -0.0763733 0.0625934 0.00813544 1 0.523599 
187 2.63096 0.257142 -3.57832 0.100055 0.0953114 -0.0509911 0.0736109 0.0663514 0.0768951 1 0.523599 
27 -2.61993 0.965816 -3.6698 -0.00380036 -0.0482166 -0.0536746 0.185128 -0.0824851 -0.340743 1 0.523599 
211 -1.35874 0.846528 -3.35375 -0.040792 -0.0379051 0.122714 -0.149575 -0.43652 0.146654 1 0.523599 
80 -0.361627 0.847292 -3.4302 -0.308122 -0.0429988 0.152595 -0.237586 0.42291 -0.271125 1 0.523599 
124 0.722111 0.800474 -3.37532 -0.184543 -0.102625 0.027672 -0.377952 0.674518 0.102005 1 0.523599 
148 1.85481 0.884003 -3.45454 -0.0659056 0.137457 -0.0875239 -0.202834 -0.125457 -0.0567405 1 0.523599 
150 4.24005 0.572289 -3.3734 -0.00281157 -0.0727556 0.00412223 -0.0601808 -0.035468 -0.0879419 1 0.523599 
237 -4.23734 1.29841 -3.38044 0.0947208 -0.134026 0.0402104 -0.241754 -0.0713637 0.0367821 1 0.523599 
286 -1.92579 1.66127 -3.47461 -0.0562578 -0.0111407 0.0229916 0.195584 0.156055 -0.105844 1 0.523599 
330 0.21507 1.66225 -3.37415 -0.0769249 -0.102443 0.0241792 -0.0698509 0.178786 0.0769401 1 0.523599 
110 1.22782 1.66371 -3.38098 -0.0210749 -0.184035 -0.0617704 -0.159767 -0.0170396 -0.0672361 1 0.523599 
270 3.37411 1.07266 -3.37424 0.00275709 -0.119384 0.0980685 0.0942065 0.260481 0.129713 1 0.523599 
262 4.24012 1.5734 -3.37406 0.121071 0.0517262 -0.079955 0.150983 0.1101 -0.0227274 1 0.523599 
3 -3.48802 1.95509 -3.50454 0.0936564 -0.00527326 -0.00953528 0.138571 0.23354 0.150399 1 0.523599 
100 -0.857831 1.71175 -3.33956 -0.285291 -0.0768746 -0.0776336 -0.0852235 0.148219 -0.12732 1 0.523599 
21 2.45828 1.70747 -3.54551 -0.0701775 0.089111 -0.0750337 -0.0565663 0.061505 -0.108244 1 0.523599 
263 3.3739 2.07285 -3.37703 -0.167583 -0.0200814 0.291987 -0.293856 -0.243875 0.0251669 1 0.523599 
197 -4.24 2.56611 -3.25752 0.0136562 -0.160345 -0.0122414 -0.194009 -0.0707499 -0.0543371 1 0.523599 
153 -2.5006 2.5718 -3.54839 -0.0265396 -0.0227425 0.00672977 0.11562 0.0325125 0.285449 1 0.523599 
94 -1.39203 2.5584 -3.32167 -0.157888 0.244393 0.203856 -0.181808 -0.010793 0.00995044 1 0.523599 
90 -0.283139 2.52927 -3.37381 -0.0965308 0.0962874 0.00522431 -0.0347005 -0.0576976 -0.129758 1 0.523599 
213 0.717045 2.52714 -3.37421 -0.049826 -0.0869933 -0.127863 0.0804995 0.00152531 -0.111997 1 0.523599 
2 1.79601 2.48564 -3.42572 0.0187634 -0.028946 0.00836243 -0.00904182 -0.0742419 0.077795 1 0.523599 
248 4.23985 2.57371 -3.37374 -0.0629712 0.150814 0.0564533 0.126517 0.0229744 0.0162034 1 0.523599 
194 -4.23998 3.5254 -3.54056 -0.0887126 0.0387219 -0.0645355 -0.0959595 0.100056 -0.13743 1 0.523599 
132 -3.06767 3.37199 -3.35113 -0.303523 -0.10946 -0.104463 0.156671 -0.302602 -0.0684301 1 0.523599 
301 -1.9091 3.4234 -3.43491 0.0249284 -0.0175807 0.0921456 0.0844394 -0.124367 0.0412276 1 0.523599 
171 -0.816649 3.375 -3.37421 0.0265328 0.124163 0.020916 0.0560664 -0.0779686 -0.0032815 1 0.523599 
108 0.218659 3.39414 -3.37356 -0.130523 0.0646162 -0.112151 -0.0138176 0.032805 0.0712458 1 0.523599 
91 1.25137 3.37337 -3.37493 0.297166 -0.0218758 -0.0705857 -0.0328536 -0.0493414 0.0648866 1 0.523599 
245 2.25569 3.37238 -3.37506 -0.151578 -0.115228 0.130046 0.1955 -0.187791 0.135149 1 0.523599 
163 3.61766 3.54726 -3.61669 0.123358 0.0691527 0.00994325 0.0103344 0.0342916 0.0760401 1 0.523599 
151 -3.52864 4.24001 -3.53492 0.0652633 -0.0407583 -0.114497 0.00107479 -0.247637 -0.13161 1 0.523599 
231 -2.47855 4.23924 -3.28894 0.0234302 -0.0121718 0.0967743 0.011796 -0.469379 0.01294 1 0.523599 
112 -1.31826 4.24001 -3.37493 -0.00207441 -0.013205 0.0187652 -0.00931632 0.12972 -0.0687349 1 0.523599 
156 -0.314676 4.24005 -3.37259 -0.10106 0.0430365 -0.0968363 0.0341167 0.178561 -0.0362366 1 0.523599 
146 0.751908 4.24005 -3.37471 0.0472078 0.0551788 0.0761168 0.0413079 -0.024118 -0.165683 1 0.523599 
6 1.75345 4.23981 -3.37413 0.0595288 -0.00525288 0.150037 -0.0290215 0.0980594 -0.0460283 1 0.523599 
79 2.75363 4.23992 -3.37417 -0.0783517 0.134605 -0.0999106 0.00953004 0.120653 0.0509591 1 0.523599 
136 4.23992 4.24002 -3.25243 0.0331356 0.0255059 0.0240235 -0.0579739 -0.0343401 -0.0326439 1 0.523599 
44 -3.43382 -4.01714 -2.68891 0.083305 -0.0251509 0.00149385 0.0820491 -0.0889019 -0.052287 1 0.523599 
16 -1.24979 -4.23993 -2.50202 -0.0665101 -0.0911528 0.163088 -0.00905937 -0.0912346 0.181984 1 0.523599 
218 -0.240275 -4.16703 -2.51116 0.0409239 0.0140291 0.0291671 -0.059653 -0.0721578 0.190754 1 0.523599 
200 0.772951 -4.24001 -2.51591 -0.0163331 -3.23653e-05 -0.0429687 0.037912 -0.072026 -0.0166344 1 0.523599 
236 1.97482 -4.23954 -2.66097 -0.00822346 -0.0700325 -0.105924 -0.021964 -0.107888 -0.0932128 1 0.523599 
189 4.23997 -4.23998 -2.68125 -0.0431561 0.0681826 0.103318 0.0203426 0.0157172 0.00995797 1 0.523599 
105 -4.24005 -3.37315 -2.63872 -0.115176 -0.0761359 -0.240625 0.192059 0.149109 -0.0401932 1 0.523599 
317 -2.20508 -3.39885 -3.09652 -0.0590671 0.188779 -0.294044 -0.235677 0.129842 -0.0132977 1 0.523599 
58 1.37064 -3.44418 -2.61263 -0.00837032 0.0673001 -0.0457332 -0.030727 0.0588223 -0.0438127 1 0.523599 
86 2.77223 -3.60563 -2.82303 0.0465204 -0.0859926 -0.0465446 -0.0843668 0.0221205 -0.065961 1 0.523599 
93 4.24001 -3.22773 -2.53798 0.0432529 0.0397858 0.0420683 -0.0251794 -0.0364388 0.0350969 1 0.523599 
233 -3.35204 -2.95172 -2.82207 -0.0549529 0.0355583 -0.0720153 0.0564123 -0.06383 0.177726 1 0.523599 
249 -2.4935 -2.45281 -2.9403 -0.0432355 0.0586839 0.0584546 -0.0849687 -0.088814 -0.1211 1 0.523599 
278 -0.884916 -2.5252 -2.98026 0.0608008 -0.0892961 0.0649175 -0.0852744 -0.0538384 -0.044173 1 0.523599 
255 0.565034 -2.44561 -2.83555 -0.0123001 -0.0987124 -0.114908 -0.121275 0.103824 0.0986978 1 0.523599 
234 1.92745 -2.59414 -2.69751 0.225504 -0.00385752 -0.137775 -0.0570047 -0.0130936 0.0304703 1 0.523599 
61 3.42213 -2.86267 -2.98271 0.0505995 -0.0424442 -0.00136788 -0.0146436 -0.00776143 0.0475119 1 0.523599 
228 -1.70518 -1.73165 -2.90024 -0.00500042 -0.00403554 -0.00280305 -0.0278556 0.0388561 -0.114464 1 0.523599 
298 -0.204113 -1.80058 -2.8619 -0.0750782 -0.0443804 0.0372109 -0.0364619 -0.0922558 0.051264 1 0.523599 
230 2.82873 -2.19204 -2.53626 0.142086 0.0806781 -0.0161093 0.0328329 -0.0292703 0.0131418 1 0.523599 
162 4.10203 -1.95808 -2.5363 0.00511773 -0.110349 0.00648022 0.0512745 -0.0165983 -0.0145599 1 0.523599 
138 -4.24009 -1.21311 -2.50172 -0.0602628 0.126334 0.137676 0.222101 -0.0238078 0.0238649 1 0.523599 
210 -3.42604 -1.21646 -3.0824 -0.0486172 0.0387919 0.146721 -0.0203187 0.0926887 -0.076854 1 0.523599 
291 -2.60283 -1.44744 -2.56391 0.00102101 0.00300534 0.127659 -0.0135606 -0.0691618 0.0223789 1 0.523599 
344 -0.90401 -1.03931 -2.78236 0.12685 -0.000774488 0.0380617 -0.265862 0.1175 0.0673298 1 0.523599 
216 0.70609 -1.4857 -2.59261 0.130932 0.0480021 0.133346 0.0947265 0.11669 -0.00227566 1 0.523599 
206 3.32816 -1.32695 -2.58826 0.0382736 -0.071365 -0.0679446 -0.0362292 -0.0290792 0.0948899 1 0.523599 
280 -1.85404 -0.785808 -2.60069 -0.0317537 0.096688 -0.228411 -0.19467 0.0087467 -0.0886344 1 0.523599 
275 0.0732652 -0.687928 -2.58626 0.227383 -0.122127 -0.0672643 -0.168959 0.0230414 -0.195863 1 0.523599 
181 1.41044 -0.776828 -2.55098 -0.220498 0.0468639 -0.158903 0.0200393 -0.0371675 -0.293669 1 0.523599 
39 4.23961 -0.92289 -2.50443 0.12818 0.0116659 -0.138715 -0.00129446 -0.0352743 -0.140447 1 0.523599 
31 -4.24004 -0.213264 -2.50692 0.130749 0.0484747 0.0516262 0.0224275 -0.0852316 -0.0427675 1 0.523599 
271 -3.41991 -0.216061 -3.088 -0.0195135 0.129688 0.056158 -0.099509 -0.0459076 -0.0852324 1 0.523599 
203 -2.55027 -0.0340818 -2.57512 0.0524479 0.0134969 -0.0535039 0.0371778 -0.0431646 -0.309874 1 0.523599 
340 -1.5754 0.166885 -2.47975 -0.0779905 -0.0197449 0.0228036 0.206349 0.0832281 0.448946 1 0.523599 
135 -0.588215 0.0707864 -2.60991 0.139221 0.185868 -0.0928663 -0.281713 0.224041 0.149362 1 0.523599 
54 0.793744 0.00999773 -2.5793 0.128312 0.50101 -0.048183 0.183392 0.191336 -0.223733 1 0.523599 
285 2.0803 0.112227 -2.75623 0.026536 0.147662 -0.0357944 -0.13541 -0.0263071 -0.0592808 1 0.523599 
129 3.44126 0.0619901 -3.02602 0.0536165 0.0462647 -0.0203455 0.0842748 -0.131938 -0.0475464 1 0.523599 
341 -4.23999 0.798059 -2.51413 0.0764195 0.00709746 0.171816 0.213827 -0.111236 -0.0548204 1 0.523599 
258 -3.4027 0.850976 -3.05824 0.0898852 0.11453 0.124548 -0.407294 0.249271 0.203075 1 0.523599 
308 -2.17273 0.912261 -2.7766 -0.238429 -0.176633 0.0436968 -0.316454 0.00160277 0.193653 1 0.523599 
134 0.134863 0.762238 -2.56632 0.0685224 0.104024 0.041153 -0.0364123 0.176589 0.0836212 1 0.523599 
266 1.34655 0.844037 -2.59384 -0.204477 0.170715 -0.0239077 -0.363997 -0.343809 0.118669 1 0.523599 
209 2.60091 0.967189 -2.7488 -9.68068e-05 -0.020364 0.213548 -0.526567 -0.331115 0.189702 1 0.523599 
229 -3.74438 1.6639 -2.58298 0.132188 -0.0370441 0.0816839 -0.286295 -0.160255 0.115394 1 0.523599 
383 -0.274036 1.67261 -2.50191 0.139023 -0.036327 0.17152 -0.0321737 -0.148496 -0.136167 1 0.523599 
319 0.727703 1.62752 -2.51592 -0.139603 0.453556 -0.297332 -0.207102 0.0782114 -0.0684839 1 0.523599 
259 3.37044 1.57967 -2.50726 0.249342 -0.121614 0.142095 0.147197 0.111381 -0.134048 1 0.523599 
313 4.23881 1.07379 -2.50783 0.00313075 -0.065043 0.028585 -0.0721853 -0.038254 -0.0111834 1 0.523599 
332 -2.71001 1.85368 -2.88462 -0.125231 -0.0182029 0.0197178 -0.167804 -0.116132 -0.192797 1 0.523599 
252 -1.50257 1.81436 -2.58162 -0.00980267 0.18483 0.0341684 -0.268859 -0.0785518 0.124284 1 0.523599 
282 1.93014 1.70482 -2.67017 0.183477 0.0180046 -0.055321 -0.251957 0.282899 -0.13786 1 0.523599 
279 4.23996 2.07382 -2.5077 -0.168012 0.0203728 -0.0286414 0.005803 0.0670188 0.0496622 1 0.523599 
173 -3.35275 2.60981 -2.76024 -0.148908 0.0429004 0.140228 0.238141 -0.189072 0.13815 1 0.523599 
242 -2.11081 2.61205 -2.62834 -0.087777 -0.074461 0.0610606 -0.248938 -0.115836 0.10739 1 0.523599 
331 -0.800233 2.5232 -2.51646 -0.204892 -0.0759428 0.0385507 0.0925907 0.0149117 -0.343677 1 0.523599 
390 0.232784 2.5348 -2.49871 -0.0338399 -0.11128 0.0507006 0.0308739 0.11887 -0.122268 1 0.523599 
324 1.29496 2.46935 -2.56029 -0.103088 -0.452457 -0.186802 -0.0579121 0.00578137 0.126412 1 0.523599 
188 2.60518 2.42258 -2.84146 -0.0576158 0.173334 0.156432 -0.0633625 -0.0275252 -0.12285 1 0.523599 
250 -4.06911 3.28611 -2.58487 -0.132975 0.0816398 0.0398875 0.0582416 -0.0249491 -0.0387093 1 0.523599 
299 -2.50987 3.52413 -2.53428 -0.159254 0.0167501 -0.161148 -0.149019 0.268954 -0.0679503 1 0.523599 
223 -1.41204 3.32524 -2.57237 -0.070138 -0.00260672 0.042368 0.0859373 0.104852 -0.0602501 1 0.523599 
246 -0.293371 3.38516 -2.51464 -0.0584224 -0.0403706 0.000575311 -0.159967 0.130312 -0.00334127 1 0.523599 
343 0.752715 3.38927 -2.50815 0.0340123 -0.0654833 -0.131467 -0.0118281 -0.0851062 -0.0685562 1 0.523599 
240 1.75377 3.35694 -2.51022 -0.187041 -0.0573813 0.23236 -0.0535503 -0.115993 -0.199909 1 0.523599 
13 3.07837 3.30341 -2.81084 -0.0760007 -0.050759 0.0373234 0.0157318 0.0415039 -0.0561268 1 0.523599 
265 4.23876 3.36659 -2.76439 -0.0273268 0.017598 -0.00805062 0.0406706 -0.112937 0.0396955 1 0.523599 
273 -4.23989 4.24001 -2.83209 -0.120102 0.0314655 0.0795846 0.0409643 0.177841 0.120067 1 0.523599 
83 -3.20655 4.24007 -2.58823 -0.200485 -0.00989554 -0.0814705 -0.00834662 0.180424 -0.086179 1 0.523599 
72 -1.81211 4.23979 -2.50524 -0.0037436 0.0629331 -0.0179427 0.0728982 0.112236 0.0146209 1 0.523599 
177 -0.812156 4.23996 -2.50517 -0.0297277 -0.0228184 -0.226827 0.0461812 0.0285059 0.0268642 1 0.523599 
244 0.225293 4.24001 -2.52454 0.130934 -0.0284441 0.0061542 0.0220978 0.0491593 0.0242496 1 0.523599 
205 1.27827 4.23983 -2.4941 -0.120603 0.0693033 0.12054 -0.0208661 0.0401032 0.0817668 1 0.523599 
130 2.27828 4.2397 -2.49445 -0.0327106 0.0123702 0.221347 -0.14096 0.0943793 -0.00860624 1 0.523599 
20 3.27794 4.24002 -2.52289 0.0859989 -0.0641055 0.0824831 0.00263564 0.00659947 0.0541259 1 0.523599 
192 -4.23998 -4.24021 -2.14094 -0.0224801 0.112299 -0.111053 -0.156194 0.0282393 -0.0102603 1 0.523599 
92 -2.42808 -4.23998 -2.4241 0.0129957 -0.0721799 -0.0172272 0.112524 -0.169993 0.0484862 1 0.523599 
316 3.32352 -4.23992 -2.28104 -0.0656727 0.00186786 -0.0317283 -0.0312213 -0.103667 0.00797297 1 0.523599 
269 -2.80682 -3.3732 -2.09739 0.0603088 -0.0862698 -0.0838886 0.0608717 0.0475045 -0.0308962 1 0.523599 
318 -1.81619 -3.50934 -2.12033 -0.204237 -0.0667183 -0.162503 -0.00623194 -0.0627524 0.0322607 1 0.523599 
312 -0.868161 -3.3238 -2.37878 -0.0464396 -0.0206637 0.050473 -0.0224353 0.144028 -0.178365 1 0.523599 
99 0.404329 -3.32061 -2.37894 0.112877 -0.149188 0.0872394 0.0330488 -0.0986141 -0.0492622 1 0.523599 
238 2.19426 -3.31703 -2.05989 -0.0578646 0.170468 -0.15796 0.0456336 0.0625994 -0.0669862 1 0.523599 
57 3.32895 -3.25758 -2.06869 -0.0735914 0.137382 0.103041 -0.269588 -0.218213 -0.0241114 1 0.523599 
208 -4.24003 -2.39091 -2.45111 0.00241133 -0.0780376 0.0199586 -0.0486662 0.130885 -0.0629242 1 0.523599 
367 -3.51562 -2.71583 -1.83856 0.0846769 0.0466072 -0.115361 -0.171032 -0.115579 0.113935 1 0.523599 
281 -1.72528 -2.52952 -2.29799 0.145902 0.00918243 0.0105911 -0.0730494 -0.11959 -0.0158007 1 0.523599 
199 -0.233758 -2.56709 -2.22038 -0.025214 0.0551703 0.00506628 0.154038 0.121251 -0.0269758 1 0.523599 
256 -3.47534 -1.79079 -2.21645 -0.0331935 0.0261069 -0.123512 0.0369392 -0.0969863 0.103668 1 0.523599 
359 -2.6317 -2.26643 -1.96764 0.0230705 -0.0939962 -0.0430333 0.0919248 0.062328 -0.0835266 1 0.523599 
227 -0.975489 -1.8709 -2.22947 -0.198385 -0.0136687 0.0891399 0.0816578 -0.216767 0.0887324 1 0.523599 
339 0.617554 -2.17405 -1.87276 0.175159 -0.0773162 0.0647263 0.0122141 0.111422 -0.0173364 1 0.523599 
295 -1.87642 -1.59535 -1.89124 -0.123695 0.0248578 -0.08486 -0.138522 -0.216055 -0.105965 1 0.523599 
412 -0.0612361 -1.44059 -1.93967 0.0601369 0.0693415 0.17744 -0.0626272 0.072826 -0.122958 1 0.523599 
195 1.88449 -1.64305 -2.39018 0.0483788 0.12689 -0.00464184 -0.0175371 -0.0783249 0.2216 1 0.523599 
292 2.69816 -1.49034 -1.82873 -0.190297 0.0548333 -0.0900624 0.0375019 0.14176 -0.0513868 1 0.523599 
352 -3.42206 -0.711379 -2.21929 -0.0503928 0.0914357 -0.00870351 0.25849 -0.000570821 -0.067084 1 0.523599 
322 -0.65428 -0.635769 -1.9019 -0.049277 0.103441 0.139604 0.19146 -0.265124 -0.131325 1 0.523599 
380 0.716493 -0.821092 -1.83246 -0.0057107 -0.195716 -0.0094022 0.157229 0.124793 0.157757 1 0.523599 
215 2.52001 -0.736659 -2.46192 -0.151117 0.131807 -0.1229 -0.0529404 -0.0683764 0.155402 1 0.523599 
329 3.42128 -0.43003 -2.15573 -0.0976858 0.0770958 0.05022 -0.047722 -0.0458129 -0.124652 1 0.523599 
386 -3.42675 0.294388 -2.22301 0.0807884 0.00342147 -0.113866 0.206202 0.0682327 0.205753 1 0.523599 
357 0.0706457 0.0587098 -1.85773 0.0762471 0.0344446 -0.0766035 0.180919 -0.502633 -0.369766 1 0.523599 
140 1.54284 0.0279392 -1.91721 -0.076682 0.0210221 -0.0046769 0.118849 -0.197727 0.0894023 1 0.523599 
379 2.60459 0.0911025 -1.90506 0.143012 0.637183 -0.26143 0.0375861 0.157763 0.16676 1 0.523599 
323 4.24003 0.0772978 -2.42454 0.0326363 -0.09721 0.0202475 0.0018145 -0.00953437 -0.0164422 1 0.523599 
474 -1.79467 0.967742 -1.84684 -0.182329 -0.242021 0.0447951 -0.12049 0.0778716 0.0219242 1 0.523599 
382 -0.984195 0.971968 -2.433 -0.188281 0.303659 -0.00714447 0.164231 0.147762 -0.00238778 1 0.523599 
137 3.39501 0.627708 -2.20281 -0.0740991 -0.283018 0.186234 -0.244622 -0.166577 0.013265 1 0.523599 
401 -2.94416 1.16961 -2.19385 -0.182831 0.106929 0.119066 0.276552 0.339391 -0.147055 1 0.523599 
389 2.05808 1.01401 -1.90891 -0.123444 0.348158 0.120726 -0.432368 0.340162 -0.364169 1 0.523599 
377 -2.2662 1.85828 -1.93709 0.0975443 -0.315424 0.204397 0.127002 0.155546 0.168783 1 0.523599 
363 2.62447 1.95504 -1.95692 -0.280485 0.180818 0.29939 -0.403545 -0.0531948 0.0856974 1 0.523599 