ITEM: TIMESTEP
3300000
ITEM: NUMBER OF ATOMS
800
ITEM: BOX BOUNDS ff ff ff
-4.0000000000000000e+00 4.0000000000000000e+00
-4.0000000000000000e+00 4.0000000000000000e+00
-4.0000000000000000e+00 5.1000000000000000e+01
ITEM: ATOMS id x y z vx vy vz omegax omegay omegaz diameter mass 
190 -2.69667 -2.69721 -2.69959 0.946174 -0.646667 -0.0728112 -0.932205 0.301571 -0.450964 0.6 0.113097 
9 -1.83278 -2.69835 -2.6912 -0.0259665 0.548917 0.124436 -0.0286736 0.490337 -0.100791 0.6 0.113097 
40 -1.22662 -2.69512 -2.69558 0.101095 0.0734885 -0.209853 0.0362382 -0.00262125 0.125985 0.6 0.113097 
28 -0.61648 -2.69554 -2.70003 -0.273569 -0.356491 0.212116 0.423921 -0.353039 -0.00822913 0.6 0.113097 
194 0.00125722 -2.69603 -2.69986 1.16756 0.816525 -0.328393 0.481477 -0.455511 -0.182886 0.6 0.113097 
173 0.623544 -2.70033 -2.69599 0.489678 -0.267384 -0.342341 0.247668 -0.293268 -0.205374 0.6 0.113097 
94 1.23346 -2.69203 -2.69944 0.832311 -0.463482 0.609295 -0.636402 0.640907 -0.105367 0.6 0.113097 
88 1.8407 -2.69836 -2.69746 -0.266734 0.316959 -0.536198 -0.129889 0.949561 0.441498 0.6 0.113097 
214 2.69482 -2.69964 -2.69646 -0.117017 0.257731 0.423901 -0.140984 -0.0870321 -0.478572 0.6 0.113097 
184 -2.26484 -2.27946 -2.69969 -0.293783 0.387847 -0.439424 0.127811 1.00461 0.778647 0.6 0.113097 
206 -0.921411 -2.17685 -2.69385 0.449174 0.232378 -0.512413 0.126985 0.519728 0.0242615 0.6 0.113097 
123 -0.307658 -2.17399 -2.6988 -0.00152567 0.482795 0.321135 -0.668441 0.285591 -0.423476 0.6 0.113097 
176 0.316837 -2.18363 -2.69909 0.0224813 -0.685593 1.01495 -0.415891 0.0902493 -0.0543044 0.6 0.113097 
65 0.918868 -2.17738 -2.69593 -0.354722 0.0148413 1.32686 -0.186152 0.162572 0.0414464 0.6 0.113097 
19 1.66751 -2.12268 -2.69568 -0.0845182 -0.453329 0.793187 -0.161291 0.200459 -0.0264761 0.6 0.113097 
289 2.26877 -2.27573 -2.69795 -0.0464243 0.205934 0.383808 -0.394341 0.317131 -0.207511 0.6 0.113097 
239 -2.69843 -1.85412 -2.69977 -0.405961 -0.144655 -0.438232 -0.201433 -0.303192 0.558461 0.6 0.113097 
212 -2.12056 -1.69199 -2.68902 0.442121 0.193468 0.139453 -0.302483 0.254983 0.066108 0.6 0.113097 
85 -1.66954 -2.10541 -2.69945 0.00933436 0.0112949 0.542286 -0.356128 0.508394 0.631491 0.6 0.113097 
138 -1.23288 -1.66277 -2.69204 -0.227919 0.273379 -0.584206 0.159826 -0.394817 -0.138212 0.6 0.113097 
211 -0.625073 -1.65292 -2.69742 0.898646 -0.191812 -0.00413577 -0.231272 0.207331 0.306817 0.6 0.113097 
294 0.00959471 -1.66458 -2.69929 0.219885 0.973634 -0.0363624 -0.128761 0.252842 0.442265 0.6 0.113097 
220 0.613691 -1.66053 -2.69952 0.31367 0.675778 0.645592 -0.281557 0.134856 0.155948 0.6 0.113097 
235 1.2498 -1.6761 -2.69738 0.140514 -0.524597 0.333284 -0.0970134 0.121914 -0.327111 0.6 0.113097 
75 2.11994 -1.69346 -2.70009 0.183774 -0.507311 0.116801 0.0624506 0.561942 0.313039 0.6 0.113097 
185 2.7 -1.85253 -2.6985 -0.649441 -0.208791 0.121789 0.255954 0.383963 0.0605967 0.6 0.113097 
46 -2.69813 -1.25396 -2.68921 -0.297818 0.166414 0.160151 0.33795 -0.532878 -0.196401 0.6 0.113097 
340 -1.69359 -1.27009 -2.69724 0.512988 -0.0848752 -0.477468 0.466399 0.11669 -0.129328 0.6 0.113097 
238 1.69293 -1.27118 -2.69627 0.465606 -0.035112 -0.399808 0.0150237 0.0199798 -0.242334 0.6 0.113097 
256 2.6984 -1.24536 -2.69998 0.0159455 0.192418 0.354946 0.530017 -0.0576963 -0.133909 0.6 0.113097 
132 -2.19184 -0.926636 -2.69967 -0.352169 -0.474335 -0.0593145 -0.0758418 0.542872 -0.000121837 0.6 0.113097 
29 -1.13669 -1.02897 -2.69843 -0.628933 0.492014 0.365087 0.444112 0.0330131 0.134043 0.6 0.113097 
174 -0.298638 -1.14884 -2.6978 0.79896 0.570544 -0.102625 -0.108148 -0.549623 0.456329 0.6 0.113097 
11 0.306256 -1.14168 -2.68643 0.672215 0.391925 -0.301054 0.256973 -0.1161 0.264276 0.6 0.113097 
148 1.04281 -1.10285 -2.70004 -0.0248291 -0.0610138 -0.15905 -0.48186 -0.17965 0.401643 0.6 0.113097 
114 2.18617 -0.928648 -2.69625 -0.753049 0.694719 0.109942 0.554754 0.773619 0.295847 0.6 0.113097 
225 -2.69962 -0.595684 -2.69262 0.329862 0.0734038 0.358141 -0.450003 -0.098611 0.103326 0.6 0.113097 
3 -2.17541 -0.298899 -2.69978 0.314759 -0.210798 -0.286195 -0.913916 0.501478 0.227434 0.6 0.113097 
110 -1.6566 -0.64202 -2.69933 0.659922 0.755993 0.720751 -0.209822 0.522156 -0.309273 0.6 0.113097 
127 -1.1427 -0.316973 -2.6899 0.600164 -0.621495 0.605636 0.339169 -0.239233 -0.47831 0.6 0.113097 
78 -0.65214 -0.66351 -2.70007 0.124931 0.388954 -0.142093 -0.143315 -0.814844 -0.123302 0.6 0.113097 
125 0.011532 -0.61833 -2.69957 1.40093 0.30408 0.592256 0.515326 0.421566 0.465422 0.6 0.113097 
16 0.621882 -0.630308 -2.69781 -1.37475 0.102623 -0.330731 -0.415489 0.06662 -0.0206871 0.6 0.113097 
45 1.1322 -0.314605 -2.69717 0.840105 -0.385274 -1.74257 0.236755 0.404204 0.490083 0.6 0.113097 
259 1.63485 -0.67127 -2.69461 0.0840312 0.0864057 0.848546 -0.195904 0.315218 0.16189 0.6 0.113097 
129 2.12673 -0.298595 -2.69909 -0.255903 -0.173529 -0.201255 -0.503139 -0.0554206 -0.233743 0.6 0.113097 
255 2.69148 -0.602586 -2.69996 0.191938 -0.0284186 -0.00908848 -0.276768 -0.0399616 -0.0296599 0.6 0.113097 
73 -2.69708 0.00453921 -2.69969 0.170873 0.755846 -0.0102022 -0.448498 0.418495 0.263985 0.6 0.113097 
128 -1.65453 0.00109843 -2.69684 -0.152638 -0.370414 -0.23724 -0.431342 0.235832 0.21455 0.6 0.113097 
152 -0.607588 -0.0448647 -2.69683 0.0665697 -0.110075 -0.191871 0.252314 0.681024 -0.114299 0.6 0.113097 
171 -0.000405003 -0.0156215 -2.70027 0.103238 0.342552 -0.216567 0.0991022 0.242222 0.114752 0.6 0.113097 
191 0.603167 -0.0255454 -2.69591 0.170905 -0.132042 0.298469 0.199998 0.0556601 -0.29461 0.6 0.113097 
268 1.62344 0.0768203 -2.69511 -0.273735 -0.632763 -0.901473 0.00418978 -0.202404 -0.542842 0.6 0.113097 
169 2.69808 -0.00168054 -2.69226 0.442042 0.179099 0.042185 -0.118152 0.0536877 0.164423 0.6 0.113097 
83 -2.69876 0.604752 -2.69942 -0.0533758 0.314548 -0.375239 -0.0662082 -0.0901313 0.478737 0.6 0.113097 
198 -2.17307 0.309475 -2.6977 0.553806 -0.0590582 -0.103837 -0.460017 -0.347358 -0.0224831 0.6 0.113097 
10 -1.64443 0.604458 -2.69988 -0.115729 0.33395 0.0693437 -0.784083 -0.0988294 0.494735 0.6 0.113097 
209 -1.11583 0.300795 -2.69544 -0.0400045 0.421932 -0.00769597 -0.493842 0.0805398 0.333326 0.6 0.113097 
224 -0.284767 0.513351 -2.69775 -0.225882 -0.497709 -0.197508 0.158038 0.316147 0.540435 0.6 0.113097 
195 0.326424 0.518311 -2.70077 -1.20998 -0.291401 -1.02981 0.200624 0.528183 0.514183 0.6 0.113097 
157 0.975412 0.507275 -2.69635 -0.460265 0.683899 -0.101636 -1.05794 0.259095 0.0824661 0.6 0.113097 
250 1.68945 0.676396 -2.69383 0.196158 0.091756 -0.141308 -0.360794 -0.127699 0.219446 0.6 0.113097 
71 2.18024 0.301925 -2.6981 0.163114 0.447236 0.36384 -0.283336 0.11531 -0.430817 0.6 0.113097 
135 -2.18516 0.932352 -2.69908 -0.00372717 0.440225 -0.130106 -0.419997 -0.278172 -0.361372 0.6 0.113097 
201 -1.18503 0.993487 -2.69344 -0.438325 0.610442 -0.318315 -0.133071 -0.347282 -0.267595 0.6 0.113097 
124 -0.586468 1.03792 -2.69838 0.0407303 0.388512 0.953565 -0.307106 -0.224907 -0.0899429 0.6 0.113097 
186 0.0146376 1.03412 -2.69914 -0.188897 0.219763 -0.0323081 -0.0447817 0.0316916 0.45221 0.6 0.113097 
272 0.624637 1.04531 -2.69887 0.552091 0.537652 0.529312 -0.283152 0.0400688 -0.585271 0.6 0.113097 
14 1.22427 1.06997 -2.69447 -0.0103507 0.113087 -0.186198 -0.855611 -0.061798 0.153352 0.6 0.113097 
143 2.14681 1.07918 -2.69933 0.157991 0.0412143 -0.28203 -0.072681 0.46341 -0.123981 0.6 0.113097 
141 2.6395 0.733843 -2.69969 0.315227 0.371867 0.508004 -0.398067 -0.288238 0.0252378 0.6 0.113097 
43 -2.69895 1.24435 -2.69395 0.289355 0.4862 -0.100199 -0.119367 -0.358898 0.622942 0.6 0.113097 
76 -1.50278 1.6076 -2.69883 0.268216 0.248337 0.208975 -0.29042 -0.54952 -0.1064 0.6 0.113097 
49 -0.902908 1.58466 -2.69931 -0.626106 0.285678 0.823783 -0.535119 0.165648 -0.442551 0.6 0.113097 
66 -0.30191 1.56973 -2.69595 -0.379124 0.143624 -0.583386 0.0957224 -0.0166655 -0.187404 0.6 0.113097 
53 0.3062 1.56337 -2.69792 0.495483 0.121377 -0.834862 -0.0742011 -0.258691 0.134014 0.6 0.113097 
231 0.906413 1.58493 -2.69821 -0.184533 -0.0715952 0.0476187 -0.123968 0.125638 0.324927 0.6 0.113097 
199 1.55694 1.58769 -2.69926 -0.366386 -0.151021 -0.0267516 0.411817 0.40103 0.0689939 0.6 0.113097 
314 2.69619 1.3414 -2.69905 -0.242016 -0.165379 0.285966 -0.538745 -0.671679 -0.751455 0.6 0.113097 
93 -2.65817 2.09756 -2.69514 -0.265513 0.327245 -0.691163 -0.664253 -0.295682 -0.427975 0.6 0.113097 
295 -2.24727 1.64917 -2.69791 -0.0208485 -0.382406 -0.0965157 -0.883635 0.111489 -0.0699931 0.6 0.113097 
44 -1.84881 2.10018 -2.69957 -0.418341 -0.340674 0.191574 -0.034902 -0.379732 -0.329695 0.6 0.113097 
5 -0.0243308 2.11584 -2.68934 -0.303264 -0.0572652 0.162018 -0.274038 0.535983 0.113991 0.6 0.113097 
60 0.575651 2.10411 -2.69896 0.235155 -0.441924 0.466073 0.197735 0.276583 -0.636661 0.6 0.113097 
1 2.1599 1.68122 -2.69533 0.479301 0.180182 -0.0974774 0.0828975 0.226704 0.735841 0.6 0.113097 
277 2.69651 1.95065 -2.69941 0.193478 0.572845 0.117944 -0.109415 0.00472363 0.000227738 0.6 0.113097 
274 -1.23647 2.14511 -2.68784 0.434306 0.316467 0.19667 0.232732 0.361876 0.242778 0.6 0.113097 
48 -0.624482 2.15057 -2.6979 0.204679 -0.225385 0.137396 -0.310585 0.120098 0.223946 0.6 0.113097 
247 1.17642 2.12359 -2.6994 0.189562 -0.709621 0.229298 0.405313 0.21338 -0.171726 0.6 0.113097 
257 1.77633 2.1506 -2.69938 0.646536 -0.100206 0.459526 0.430735 -0.0380734 0.825303 0.6 0.113097 
31 2.69928 2.55085 -2.69772 0.394054 0.741541 0.389834 -0.582643 -0.358211 -0.448498 0.6 0.113097 
91 -2.69941 2.69863 -2.69913 0.193655 -1.38347 1.03417 1.00334 -0.102022 1.02596 0.6 0.113097 
270 -2.10097 2.6546 -2.6987 0.0441426 0.625617 0.185526 -0.275587 -0.0700559 -0.00774208 0.6 0.113097 
63 -1.50046 2.69981 -2.69327 -0.243928 -0.0966321 -0.575192 0.214269 -0.205905 -0.574056 0.6 0.113097 
90 -0.89932 2.69436 -2.69244 -0.217841 -0.146505 -0.207767 0.139778 0.255536 -0.0459176 0.6 0.113097 
22 -0.295726 2.67762 -2.69996 0.82038 -0.171786 1.15676 0.0914842 0.764011 0.29872 0.6 0.113097 
207 0.306013 2.69409 -2.69768 0.0111436 0.754555 -0.191035 0.115553 0.0645463 -0.324967 0.6 0.113097 
39 0.912848 2.67695 -2.68823 -0.0203197 -0.162461 -0.187684 0.285898 -0.0735149 -0.0385894 0.6 0.113097 
273 1.513 2.69684 -2.69896 -0.363373 0.524689 0.55988 -0.818295 0.0894806 -0.121816 0.6 0.113097 
6 2.11374 2.68829 -2.69788 -0.403698 0.249423 0.170823 0.215678 0.168395 0.238477 0.6 0.113097 
336 -2.26408 -2.69811 -2.26951 0.578884 -0.641198 -0.442367 0.191573 -0.0831393 -0.938137 0.6 0.113097 
166 2.27093 -2.70003 -2.26574 0.181435 0.0363241 -0.537353 0.21113 -0.573112 -0.760498 0.6 0.113097 
193 -2.69851 -2.2713 -2.26833 0.170525 -0.390185 0.0616016 0.147821 -0.315986 0.262193 0.6 0.113097 
175 -1.31059 -2.21399 -2.23079 -0.905749 0.196853 -0.123624 0.0759558 -0.339756 -0.113647 0.6 0.113097 
89 1.30172 -2.13729 -2.20206 0.0098996 0.735668 -0.13504 0.749125 -0.143759 0.143307 0.6 0.113097 
200 2.69984 -2.27431 -2.26912 1.55136 -0.0074232 0.08778 1.07947 -0.48865 0.544293 0.6 0.113097 
153 -1.66994 -1.68884 -2.26555 -0.0199815 0.169411 -0.0542093 -0.0777837 0.489176 0.49092 0.6 0.113097 
320 1.71513 -1.69561 -2.25742 0.574497 -0.0639629 -0.85037 0.162644 -0.147243 0.41908 0.6 0.113097 
297 -2.1467 -1.29271 -2.224 -0.0148828 -0.455784 -1.65817 -0.0407841 -0.0292923 0.244728 0.6 0.113097 
282 -0.742973 -1.20516 -2.28024 0.711079 -0.283024 0.278436 -0.802195 0.544624 -0.410461 0.6 0.113097 
210 0.934359 -1.56572 -2.19762 -0.666011 0.75791 -0.616627 0.173447 -0.283722 -0.00492533 0.6 0.113097 
118 2.1896 -1.31695 -2.23629 -0.334577 0.200145 -0.13712 0.0536763 -1.06386 0.194453 0.6 0.113097 
332 0.679743 -1.01657 -2.22903 -0.0837817 -0.285303 0.079951 0.72337 0.59235 0.0476308 0.6 0.113097 
307 1.203 -0.724289 -2.25845 0.762244 0.300428 0.54958 0.129174 -0.0352129 -0.725705 0.6 0.113097 
221 -2.01682 -0.604819 -2.207 0.772856 0.536498 -0.360422 0.903119 0.429589 -0.933925 0.6 0.113097 
384 -1.49437 -0.301517 -2.20389 -0.465888 1.04324 0.891251 0.179978 0.287071 -0.171455 0.6 0.113097 
316 -1.02141 -0.670897 -2.22077 0.0671408 0.511522 -0.206179 -0.341406 0.376382 0.61618 0.6 0.113097 
357 -0.326578 -0.474025 -2.22544 0.339913 0.0877874 0.0746123 -0.0344625 0.0187788 0.449197 0.6 0.113097 
362 0.754549 -0.325634 -2.19831 -0.425721 -0.276069 0.369255 -0.852886 -0.515189 0.0319651 0.6 0.113097 
371 1.63122 -0.296981 -2.22263 0.671384 0.251817 0.577255 0.195446 0.271911 -0.152218 0.6 0.113097 
290 -2.01828 0.0145736 -2.1983 0.361236 0.642756 0.0260635 0.512948 -0.113762 0.276755 0.6 0.113097 
302 1.16783 0.107475 -2.27125 0.242734 0.32994 -0.188977 0.075174 0.0495997 -0.0378897 0.6 0.113097 
203 -2.0142 0.619245 -2.20656 0.723961 -0.81735 -0.350495 0.146297 0.216574 -0.048271 0.6 0.113097 
24 -1.46558 0.298237 -2.20243 1.09783 0.297007 -0.548808 -0.219721 -0.78546 0.414441 0.6 0.113097 
23 -0.744374 0.590445 -2.3127 -0.215421 0.600059 -0.777238 0.13849 0.256731 -0.056652 0.6 0.113097 
326 0.648414 0.60768 -2.1985 1.93132 -0.316874 -0.489502 0.728829 0.219289 -0.722524 0.6 0.113097 
443 1.3066 0.695875 -2.23079 0.273199 -0.18684 0.23191 0.307119 -0.0285581 0.0631933 0.6 0.113097 
182 2.19278 0.692958 -2.24172 -0.392477 0.290753 -0.774919 0.378957 -0.0670489 0.147245 0.6 0.113097 
310 2.6986 0.370731 -2.21749 -0.142022 0.497787 -0.0494445 1.1027 0.112713 0.000682329 0.6 0.113097 
92 -1.69522 1.12256 -2.39983 0.0561437 0.132065 0.983782 -0.244636 0.503285 0.482701 0.6 0.113097 
33 1.69543 1.15235 -2.31028 -0.0461911 0.735421 -0.562878 0.199032 -0.109679 -0.163678 0.6 0.113097 
64 -2.24187 1.28848 -2.21614 0.728683 0.160685 0.211419 0.565559 -0.38547 -0.729161 0.6 0.113097 
59 -2.6972 1.67553 -2.27079 -0.0951365 -1.54217 -1.52811 0.444372 -0.52373 0.744672 0.6 0.113097 
187 -2.2242 2.04823 -2.23059 0.705498 -0.575552 0.376183 -0.0964754 -0.314827 -0.237406 0.6 0.113097 
119 1.23174 1.66226 -2.1982 0.265374 -0.173726 -0.601016 -1.21023 -0.835618 -0.0728289 0.6 0.113097 
140 2.25643 2.15637 -2.33976 0.577127 -0.455376 0.0320508 0.384164 -0.198121 0.500865 0.6 0.113097 
218 -2.6899 -2.69304 -1.84089 -1.03443 -0.249749 0.0526673 -0.161041 -0.326279 -0.19998 0.6 0.113097 
32 -1.67687 -2.694 -2.11143 -0.346704 0.00313288 -0.534319 -0.737279 0.173738 -0.391589 0.6 0.113097 
208 -0.918385 -2.68966 -2.18053 -0.422286 0.73342 0.53511 -0.990214 -0.0580526 0.420314 0.6 0.113097 
183 -0.314539 -2.6862 -2.16912 -0.167557 0.862074 0.338504 0.307223 0.21696 -0.190432 0.6 0.113097 
285 0.311844 -2.68085 -2.17979 -0.0923146 -0.19225 -1.67001 0.204734 0.333136 -0.187673 0.6 0.113097 
179 0.917609 -2.62394 -2.17196 1.12683 1.20519 0.241185 0.296664 -0.770489 0.58223 0.6 0.113097 
98 1.58691 -2.68517 -2.15307 0.30454 0.341592 0.139669 0.0804577 -0.159216 0.0121836 0.6 0.113097 
341 2.68921 -2.69366 -1.83511 -0.528813 -0.300615 0.0399675 -0.0491263 0.549918 -0.777475 0.6 0.113097 
291 -2.04545 -2.14123 -2.14298 0.048727 -1.09738 0.288641 0.0885744 0.343784 0.0477511 0.6 0.113097 
373 -0.609596 -2.16054 -2.17774 0.792348 0.947744 -1.76537 0.217566 -0.812122 -0.620743 0.6 0.113097 
233 0.00455108 -2.15074 -2.18722 -0.128483 -0.225841 0.509208 0.149746 -0.324733 -0.206414 0.6 0.113097 
333 2.10444 -2.13741 -2.13165 0.422559 -0.107151 0.451783 0.125517 -0.107684 -0.263859 0.6 0.113097 
82 -2.69104 -1.6611 -2.13076 0.510716 0.234442 0.0413444 -0.125744 1.02433 -0.16476 0.6 0.113097 
485 -1.08861 -1.66174 -2.09822 0.52794 -0.0552435 0.163106 0.536189 0.183251 0.264637 0.6 0.113097 
380 0.61713 -2.07624 -2.18758 0.364885 0.145345 0.988836 0.364605 -0.616523 -0.15928 0.6 0.113097 
329 1.34683 -1.70643 -1.78329 -0.65434 -1.63831 0.246597 1.22914 -0.0676043 0.0608363 0.6 0.113097 
103 2.66695 -1.67234 -2.12385 0.00836767 0.211184 -0.253237 -0.21444 -0.251837 0.214018 0.6 0.113097 
104 -1.74725 -1.34606 -1.77013 -0.541336 -0.33203 0.193167 0.333008 -0.716617 0.874441 0.6 0.113097 
367 -0.317136 -1.63043 -2.17556 -0.420766 0.18712 -0.0836982 0.302232 -0.409969 -0.528078 0.6 0.113097 
41 0.320623 -1.53835 -2.18967 0.932755 0.199268 -0.404513 -0.431505 0.574325 -0.053108 0.6 0.113097 
70 -2.62222 -0.92629 -2.19124 0.292906 0.213262 -0.0492927 -0.663606 -0.0372453 -0.286931 0.6 0.113097 
25 -1.54238 -0.973961 -2.1959 0.531515 -0.12441 0.0685502 -0.44074 0.351177 0.0279753 0.6 0.113097 
474 -1.10692 -1.12326 -1.80932 0.103913 -0.960888 0.272143 0.619512 -0.159612 -0.261433 0.6 0.113097 
117 -0.631691 -0.714457 -1.76357 -1.38036 0.192225 -0.611885 0.237447 0.374786 -0.765832 0.6 0.113097 
105 -0.187289 -1.04837 -2.10559 -0.601733 -0.00367888 0.284648 0.19572 0.972016 -0.418863 0.6 0.113097 
378 0.304134 -1.12323 -1.75147 0.411594 -0.092901 0.990228 0.0587465 0.156701 -0.226312 0.6 0.113097 
260 1.10942 -1.12723 -1.81915 0.612469 1.09125 0.660622 0.163066 0.546287 -0.351542 0.6 0.113097 
313 1.63571 -1.11557 -2.11707 -0.193858 -1.23213 0.47028 0.596966 -0.427579 -0.156821 0.6 0.113097 
249 2.69891 -1.01964 -2.12099 0.038737 -0.0609803 0.766619 -0.228523 0.13533 0.383296 0.6 0.113097 
287 -2.5384 -0.286375 -2.19069 -0.608947 0.256666 -0.0120892 -0.272607 0.431329 -0.418826 0.6 0.113097 
80 0.240209 -0.626922 -2.09799 0.598708 0.307268 -0.0859635 0.00586469 0.0955297 -0.370942 0.6 0.113097 
533 1.20146 -0.325803 -1.79403 0.492246 -0.451019 0.149867 1.1705 0.382802 -0.911361 0.6 0.113097 
34 2.13769 -0.62589 -2.18034 -0.0696875 0.0333669 0.353868 -0.465588 -0.456317 -0.088363 0.6 0.113097 
12 2.69994 -0.418692 -2.1079 0.545385 -0.390976 0.187 0.184053 -0.055398 0.337738 0.6 0.113097 
58 -0.939484 -0.0166133 -2.19201 -0.495058 0.281276 -0.496688 0.446832 0.538686 0.444891 0.6 0.113097 
293 -0.344899 0.127276 -2.18497 0.371036 0.227423 0.0870021 0.0268577 -0.307458 0.0729526 0.6 0.113097 
149 0.241054 -0.0184173 -2.15067 1.18164 -0.248995 0.233472 -0.236275 0.000423167 0.0930233 0.6 0.113097 
271 0.721097 0.144291 -1.8078 -0.552745 -0.598871 0.0541955 0.0484596 0.398517 0.196619 0.6 0.113097 
181 2.24907 -0.0282563 -2.17548 0.233565 -0.579139 0.00107102 -0.299046 0.360754 0.147875 0.6 0.113097 
13 -2.57611 0.312873 -2.18245 0.606719 -0.301609 -0.208017 0.150364 -0.608916 -0.230063 0.6 0.113097 
192 -0.455175 0.577912 -1.78187 0.673038 -0.183065 0.449844 -0.384844 0.417585 -0.0886521 0.6 0.113097 
54 0.0344505 0.592176 -2.17973 -0.410837 -0.131961 -0.657025 0.257936 0.21316 0.576875 0.6 0.113097 
102 1.73981 0.289324 -2.14621 0.875205 0.582205 0.314214 -0.112059 0.495604 -0.0187532 0.6 0.113097 
264 -2.69931 0.900658 -2.17755 -0.203635 0.0882813 0.422973 0.201426 -0.174896 0.0702756 0.6 0.113097 
79 -1.24761 0.853563 -2.10304 0.725863 0.587342 -0.192784 -0.182303 0.167275 -0.742846 0.6 0.113097 
232 -0.783078 1.13807 -1.84829 0.486593 -0.137299 0.419635 0.102407 0.232174 -0.0314531 0.6 0.113097 
375 -0.283493 1.10697 -2.18369 -0.451789 1.19426 0.192988 -0.294643 -0.050434 -0.3316 0.6 0.113097 
216 0.315797 1.13597 -2.19 -0.1031 0.365377 0.438892 -0.0963827 0.15484 -0.273661 0.6 0.113097 
394 0.916395 1.15021 -2.18345 -0.133374 0.870491 0.270312 -0.0259995 -0.569522 -0.202269 0.6 0.113097 
514 1.74164 0.807809 -1.8214 0.508241 -0.625672 -0.644815 0.273947 -0.722563 0.892507 0.6 0.113097 
67 2.70001 1.02956 -2.18137 0.0641253 -0.296635 -0.603385 0.641696 0.209176 -1.08995 0.6 0.113097 
188 -2.67561 1.33559 -1.76117 0.316967 0.19291 0.412656 -0.0449468 0.0274019 -0.184852 0.6 0.113097 
331 -1.19613 1.44431 -2.19478 0.206842 -0.167463 -0.239631 0.712595 0.331263 0.574767 0.6 0.113097 
37 -1.62091 1.21876 -1.80603 -0.0565854 -0.629558 0.620532 -0.641155 0.120491 0.778747 0.6 0.113097 
26 -0.600062 1.63452 -2.17608 -0.107385 0.63527 0.627744 -0.667501 0.600509 -0.143303 0.6 0.113097 
115 1.56169 1.38203 -1.76169 0.358055 0.0213963 0.705866 1.12228 0.508764 -0.0584274 0.6 0.113097 
21 2.17503 1.21375 -1.94266 -0.203603 0.632894 -0.294716 -0.204496 0.257538 -0.364628 0.6 0.113097 
305 -2.69928 1.98155 -1.75164 0.787636 -0.313815 0.545496 0.301283 0.415296 -0.397435 0.6 0.113097 
401 -2.17721 1.68171 -1.75779 0.0867687 0.423323 0.23971 0.281204 -0.134581 -0.484281 0.6 0.113097 
227 -1.72274 1.72801 -2.14779 -0.516447 0.271456 -0.401201 1.01898 0.474542 -0.367816 0.6 0.113097 
350 0.00421307 1.65879 -2.18586 -0.886111 0.514566 -0.679682 0.0760785 -0.134043 0.202264 0.6 0.113097 
121 0.607767 1.66481 -2.18406 0.0181085 -0.333919 0.354568 -0.412003 0.0107235 -0.585579 0.6 0.113097 
298 1.89168 1.70028 -2.15179 0.547865 0.277666 -0.166834 -0.00933067 -0.24205 0.133584 0.6 0.113097 
72 2.69538 1.64712 -2.18156 -0.248216 0.547799 -0.865763 0.973652 -0.27999 -0.585599 0.6 0.113097 
167 -2.69951 2.41148 -2.17228 0.342008 -0.242234 0.0223919 -0.306035 -0.505692 -0.082691 0.6 0.113097 
309 -1.70053 2.33718 -2.16874 -0.0305869 0.795331 0.359523 -0.0384417 -0.024606 -0.0773551 0.6 0.113097 
7 -0.916466 2.16188 -2.17272 0.269701 0.640994 0.283439 -0.704042 -0.126352 -0.0421517 0.6 0.113097 
382 -0.311699 2.16913 -2.15857 -0.436403 -0.238183 -0.631848 -0.140354 -0.132984 -0.134509 0.6 0.113097 
87 0.299838 2.18086 -2.16866 0.500318 -0.391447 -0.0895966 0.0710573 -0.175896 0.254089 0.6 0.113097 
364 0.910511 2.18259 -2.16367 -1.67856 0.204127 0.099673 -0.691104 -0.631306 -0.119794 0.6 0.113097 
223 1.53102 2.18032 -2.14785 -0.105422 -0.113988 0.278393 0.48308 -0.355959 -0.0720294 0.6 0.113097 
365 2.14662 2.36758 -1.77526 -0.798206 -0.177572 0.0143694 0.475038 0.256395 0.212108 0.6 0.113097 
97 2.69977 2.19674 -1.93663 0.369146 -0.147896 -0.213779 -0.0315242 0.0590939 -0.154639 0.6 0.113097 
407 -2.17594 2.6969 -2.10244 0.484922 -0.224489 0.246777 -0.165949 -0.380049 -0.258329 0.6 0.113097 
284 -1.21479 2.69469 -2.16621 -0.675142 0.625985 -0.233466 0.10342 0.588883 -0.184408 0.6 0.113097 
440 -0.611117 2.69956 -2.16604 -0.592782 -0.0648188 0.373775 0.305105 -0.0464897 0.0584716 0.6 0.113097 
398 -0.0106057 2.69997 -2.16465 -0.599436 0.547302 0.0360859 0.130796 -0.268989 0.323581 0.6 0.113097 
146 0.603601 2.69988 -2.17371 0.214546 -0.520426 -0.273866 0.0806042 0.155305 0.272503 0.6 0.113097 
131 1.22993 2.69887 -2.16508 -0.14707 -0.392042 0.0716289 -0.0493272 0.047231 0.406678 0.6 0.113097 
330 1.83354 2.6995 -2.16597 -0.3648 -1.06582 -0.0986189 0.511972 -0.418882 -0.276221 0.6 0.113097 
15 2.45875 2.69792 -2.16787 -0.0619277 -0.343984 0.515631 -0.322957 0.277821 -0.218446 0.6 0.113097 
537 -2.10917 -2.69741 -1.68708 -1.24111 0.017685 -0.739513 0.0314317 -0.204649 0.758148 0.6 0.113097 
374 -1.25349 -2.6926 -1.68018 0.310573 -0.116592 0.228943 -0.39015 -0.587011 -0.107469 0.6 0.113097 
347 -0.628313 -2.69475 -1.65506 -0.691333 -0.171962 -1.18235 0.117255 0.813353 -0.256731 0.6 0.113097 
47 0.00893559 -2.7003 -1.66024 0.745381 -0.743357 0.510835 -0.284185 0.0733115 0.0182341 0.6 0.113097 
393 0.632687 -2.70021 -1.64754 0.831359 0.117999 0.0584017 -0.248022 -0.015045 0.747597 0.6 0.113097 
352 1.28846 -2.69922 -1.62817 0.239775 0.117703 0.419 1.02703 0.489964 -0.0692183 0.6 0.113097 
252 2.06383 -2.69764 -1.70094 0.232693 -0.01898 0.0238299 0.0707175 -0.0920706 0.209909 0.6 0.113097 
299 -2.24242 -2.23443 -1.30594 -0.206934 1.10641 -0.497155 -0.268833 -0.424037 -0.433051 0.6 0.113097 
52 -1.62991 -2.21239 -1.71549 0.41637 0.357581 0.307503 0.582508 -0.608593 0.291406 0.6 0.113097 
351 -0.998722 -2.14655 -1.72174 -0.836262 0.247652 0.300181 0.442262 0.683636 -0.998965 0.6 0.113097 
107 -0.29275 -2.16853 -1.65772 -0.498511 0.779004 0.587 1.23792 0.370077 0.68251 0.6 0.113097 
337 0.321809 -2.18638 -1.67299 2.0559 -0.144477 0.00411258 1.03396 -0.45908 0.513298 0.6 0.113097 
453 0.961878 -2.19544 -1.71002 0.213151 0.443368 -0.149185 -0.54378 0.155668 -0.753056 0.6 0.113097 
296 1.6685 -2.23412 -1.72603 -0.165718 0.755375 0.0306343 -0.623338 0.17906 0.287889 0.6 0.113097 
8 -2.68668 -2.09964 -1.69165 -1.07486 0.942418 -0.177484 0.646518 0.305878 0.0980799 0.6 0.113097 
136 -2.2185 -1.72292 -1.7426 0.0549419 -0.888776 -0.241829 0.305663 -0.274425 0.406284 0.6 0.113097 
325 -1.81292 -1.8119 -1.3044 0.928412 1.43705 -1.10021 -0.762146 -0.242875 0.284566 0.6 0.113097 
424 0.0181106 -1.64931 -1.67757 0.702914 0.0290989 -1.96646 -0.238858 0.547791 -0.0598172 0.6 0.113097 
392 1.76252 -1.80917 -1.3115 0.0889104 0.427666 0.467339 0.790242 0.349996 -0.127538 0.6 0.113097 
172 2.15694 -1.66621 -1.74555 0.331236 -0.460914 -0.673118 0.226601 0.0328865 -0.723637 0.6 0.113097 
160 2.6138 -2.11596 -1.69276 -0.542044 -0.402519 0.0411342 0.116533 -0.139139 0.0049973 0.6 0.113097 
144 -2.69825 -1.25906 -1.68291 0.245106 0.611432 -0.483992 0.574013 0.00875053 0.555393 0.6 0.113097 
491 -1.26064 -1.62642 -1.51366 0.240954 -1.19847 0.908949 -0.0397973 0.492575 0.112575 0.6 0.113097 
388 -0.63912 -1.64161 -1.66664 0.534844 0.695696 -1.04348 1.03251 0.068635 -0.128641 0.6 0.113097 
116 0.635554 -1.64691 -1.68282 0.886276 -0.254739 0.106688 -0.004358 0.136469 0.371634 0.6 0.113097 
161 1.65035 -1.23091 -1.52232 -0.397262 0.550566 -1.22031 -0.0274905 0.00916279 0.18074 0.6 0.113097 
258 2.67769 -1.35072 -1.60642 0.223838 0.873358 -0.672791 0.338007 0.0843093 -0.674312 0.6 0.113097 
323 -2.19274 -0.940227 -1.7407 -0.243314 -0.199269 -0.445236 -0.0889844 0.719194 -1.09908 0.6 0.113097 
425 -1.47319 -1.07263 -1.30978 1.27164 -0.909289 0.658678 -1.0481 -0.473122 -0.775686 0.6 0.113097 
446 -0.266215 -1.13977 -1.51343 -1.81241 -1.26786 -0.534804 0.139582 -0.350812 -0.29483 0.6 0.113097 
595 0.740444 -1.16839 -1.33625 -0.0874781 -0.110416 0.862495 -0.135646 0.0447173 -0.996557 0.6 0.113097 
155 1.2477 -0.786958 -1.3429 0.597868 -0.342488 0.507458 -0.0680106 0.76847 0.181522 0.6 0.113097 
57 2.18597 -1.02343 -1.71211 -0.362189 -0.670092 0.946095 0.190416 0.250984 -0.18918 0.6 0.113097 
322 2.69951 -0.747858 -1.5692 -0.439999 -0.793132 0.0441107 0.00445627 -0.12788 0.276557 0.6 0.113097 
248 -2.69797 -0.605804 -1.68957 -0.0258032 -0.372695 0.109565 -0.369271 -0.0266543 0.946959 0.6 0.113097 
4 -2.17519 -0.30503 -1.71091 0.0731967 0.689778 -0.367011 1.10916 -0.328305 -0.0231445 0.6 0.113097 
163 -1.6685 -0.637472 -1.70466 -0.585959 0.380508 1.03347 0.143732 0.560716 0.291602 0.6 0.113097 
151 -1.13218 -0.342211 -1.72452 0.390565 1.01455 0.141411 0.687298 0.00356184 -0.131368 0.6 0.113097 
279 -0.108767 -0.363956 -1.67527 0.0939608 -1.47247 0.516201 -1.05538 -0.669398 -0.02313 0.6 0.113097 
517 0.691393 -0.666134 -1.7015 -0.0724684 -1.1506 0.554035 0.262357 0.240925 0.198988 0.6 0.113097 
434 1.69949 -0.658419 -1.72043 0.06242 -0.306877 -0.957604 0.508606 -0.387423 -0.174821 0.6 0.113097 
222 2.25072 -0.355894 -1.64327 -1.03283 -0.277414 0.56483 0.573072 -0.0973057 -0.0922063 0.6 0.113097 
36 -2.69541 0.00312703 -1.66672 -0.11928 -0.0770503 0.166318 -0.664297 0.609816 0.24341 0.6 0.113097 
241 -1.62714 0.00949179 -1.70082 0.190954 0.112042 0.575252 0.644791 -0.74166 0.778324 0.6 0.113097 
267 -0.631706 -0.00237215 -1.67201 -0.595786 -0.7759 0.30549 0.098002 -0.0801461 -0.536621 0.6 0.113097 
478 0.414485 -0.202671 -1.40985 0.356539 0.574727 0.0943601 0.641264 0.119129 -0.41625 0.6 0.113097 
436 1.72886 -0.0559761 -1.65263 -0.607227 -0.532446 0.580384 -0.413577 0.132667 0.231054 0.6 0.113097 
266 2.69888 0.0382089 -1.7116 -0.996129 -1.19639 -0.685266 -0.456733 -0.632293 0.290436 0.6 0.113097 
226 -2.69964 0.605674 -1.65364 0.133285 0.13529 0.0579834 0.816899 0.250964 -0.0331566 0.6 0.113097 
51 -2.17035 0.318703 -1.69985 0.771829 -0.125587 0.224599 0.0411496 -0.703432 0.167323 0.6 0.113097 
286 -1.64701 0.617862 -1.72067 -0.701557 -0.332785 -0.0938612 0.349406 0.295854 0.869293 0.6 0.113097 
246 -1.06809 0.407786 -1.74036 -0.0140063 0.345183 -0.0125829 0.71339 0.588941 -0.904585 0.6 0.113097 
168 0.166201 0.318295 -1.65978 -0.207744 0.827512 0.637144 -0.451404 -0.150375 -0.641815 0.6 0.113097 
27 1.29753 0.354193 -1.73552 -0.0422909 -0.651458 0.125611 0.0150832 0.397978 -0.231175 0.6 0.113097 
180 1.73643 0.44253 -1.30688 0.13561 -0.144366 0.408967 0.209669 -0.4781 0.114541 0.6 0.113097 
412 2.16252 0.355268 -1.72241 0.241728 -0.207067 0.147865 0.0178949 -0.411302 -0.335041 0.6 0.113097 
242 2.6964 0.666206 -1.69335 0.460368 -0.229216 0.0802409 0.226211 0.169141 0.0700159 0.6 0.113097 
261 -2.20213 0.936905 -1.72604 -0.166599 0.36619 1.02531 -0.80141 -0.128998 -0.254297 0.6 0.113097 
278 -1.07867 0.897771 -1.38104 -0.420018 0.249656 -1.9527 0.846859 -0.888293 -0.404145 0.6 0.113097 
142 -0.49187 1.01858 -1.32698 -0.354615 0.327752 0.395149 0.61331 0.682732 0.270259 0.6 0.113097 
369 0.0386894 0.954507 -1.67811 0.33945 -0.284149 -1.23195 -0.364075 0.256487 0.964883 0.6 0.113097 
204 0.611054 0.71962 -1.60847 1.22528 -2.15895 0.574975 0.472564 -0.116567 0.464734 0.6 0.113097 
457 1.16621 0.938045 -1.67881 0.584378 0.952473 -1.2663 -0.476396 0.539505 0.917563 0.6 0.113097 
304 2.19522 0.879854 -1.43223 0.218823 0.294326 -0.57196 -0.40829 0.466851 0.309435 0.6 0.113097 
387 -1.08573 1.59455 -1.59447 0.43936 0.358678 -0.145264 0.819743 -0.108677 -0.316779 0.6 0.113097 
372 -0.291218 1.46254 -1.6913 -0.223905 0.0312917 -0.033253 0.200369 0.931034 -0.378327 0.6 0.113097 
81 0.330272 1.4818 -1.67814 0.217035 -0.192032 0.0796251 0.0152079 0.989057 0.653842 0.6 0.113097 
251 0.941368 1.49742 -1.69457 0.606024 -0.126572 -1.5291 0.192616 -1.71316 -1.70685 0.6 0.113097 
283 1.98677 1.43517 -1.3349 0.228407 -0.206799 0.0730344 -0.16537 0.712093 0.769587 0.6 0.113097 
99 2.69765 1.31048 -1.64568 -0.523706 -0.57612 0.332214 -0.162963 1.04489 -0.273645 0.6 0.113097 
150 -1.66034 1.69253 -1.4306 -0.026462 0.998935 -0.0708719 -0.324314 -0.267248 0.337967 0.6 0.113097 
228 -1.35357 2.11543 -1.7295 -0.927641 -1.01585 0.123097 0.426015 -0.533537 0.18884 0.6 0.113097 
100 -0.623521 1.98143 -1.68015 0.308078 -0.839707 -0.561546 -0.165313 -0.527203 0.550803 0.6 0.113097 
38 -0.00881707 1.99505 -1.66845 1.03555 -0.166295 0.0688006 -0.197477 0.663346 0.218514 0.6 0.113097 
379 0.623238 2.00637 -1.65902 0.38649 1.02517 -0.0799013 -0.476674 -0.0802239 -0.469738 0.6 0.113097 
477 1.76098 1.9439 -1.59724 0.112908 -0.769528 -0.302596 0.639407 -0.886134 -0.165587 0.6 0.113097 