ITEM: TIMESTEP
1700000
ITEM: NUMBER OF ATOMS
400
ITEM: BOX BOUNDS ff ff ff
-4.0000000000000000e+00 4.0000000000000000e+00
-4.0000000000000000e+00 4.0000000000000000e+00
-4.0000000000000000e+00 5.1000000000000000e+01
ITEM: ATOMS id x y z vx vy vz omegax omegay omegaz diameter mass 
46 -2.59626 -2.58764 -2.59961 -0.705449 -0.285338 0.723306 -0.155123 -0.0918073 -0.134082 0.8 0.268083 
38 -1.78673 -2.6 -2.59945 -0.324339 -0.00355922 0.0994537 -0.0144006 0.125828 -0.334186 0.8 0.268083 
15 -0.983405 -2.59585 -2.59733 -0.0649154 0.192643 -0.263076 0.104565 0.381349 -0.0896707 0.8 0.268083 
96 -0.158236 -2.59958 -2.59952 0.465668 -0.299623 0.160042 -0.115738 0.0173508 -0.650878 0.8 0.268083 
136 1.00005 -2.5852 -2.59895 0.222189 0.182588 0.0527613 -0.0551929 0.326206 0.105375 0.8 0.268083 
88 1.8 -2.6001 -2.59998 -0.0829685 0.00956276 0.299381 0.0872956 -0.0694588 -0.362491 0.8 0.268083 
89 2.60001 -2.5996 -2.59933 -0.0392894 0.503642 -0.0585743 -0.264191 -0.141575 -0.00066457 0.8 0.268083 
104 -1.96418 -1.81916 -2.59941 -0.70007 -0.689222 -0.0855428 0.055961 -0.211126 -0.173485 0.8 0.268083 
16 -0.487654 -1.87087 -2.60035 0.0810842 -0.402364 0.00357777 0.0917642 0.338148 0.610739 0.8 0.268083 
99 0.407574 -2.03313 -2.60004 0.0210457 0.0667105 0.865129 -0.172324 -0.00655223 0.506516 0.8 0.268083 
147 1.52303 -1.84904 -2.59968 0.371509 0.209879 -0.377412 -0.185987 0.558772 0.303885 0.8 0.268083 
23 2.59493 -1.79905 -2.59629 0.195096 0.117068 -0.78922 0.447406 -0.0637274 -0.0837155 0.8 0.268083 
5 -2.59995 -1.29758 -2.59982 -0.0383441 0.437225 -0.100704 -0.359242 -0.165669 0.0256048 0.8 0.268083 
68 -1.2191 -1.5268 -2.59892 -0.157309 -0.0696601 -0.213484 -0.130543 0.184946 -0.0261624 0.8 0.268083 
127 0.0775212 -1.30335 -2.59997 0.168308 0.353884 0.0185996 -0.380422 0.102952 -0.122923 0.8 0.268083 
22 0.87435 -1.37842 -2.59951 0.144942 0.403266 0.163977 0.0197423 -0.293583 0.154013 0.8 0.268083 
11 2.02908 -1.22844 -2.59906 0.205551 -0.0142329 -0.0881011 0.255998 0.389619 -0.375686 0.8 0.268083 
61 -1.84679 -1.02346 -2.60007 0.28814 0.052482 0.227547 -0.106337 0.512949 0.185316 0.8 0.268083 
66 -0.647526 -0.965579 -2.59965 -0.181663 0.012182 -0.589757 0.0819439 -0.250811 0.162017 0.8 0.268083 
70 0.53379 -0.63838 -2.59692 -0.0108563 -1.17271 0.400676 0.982205 -0.345008 -0.190979 0.8 0.268083 
76 1.33795 -0.726141 -2.59926 0.556817 -0.57402 0.0157863 0.457278 0.477399 1.33115 0.8 0.268083 
78 2.59515 -0.646453 -2.59643 -0.0586235 -0.758763 -0.436755 0.0341975 -0.0386581 -0.0908836 0.8 0.268083 
59 -2.59993 -0.497124 -2.58955 -0.0159663 0.248188 0.0942551 0.337656 -0.0560232 0.211253 0.8 0.268083 
126 -1.94657 -0.0343984 -2.59919 -0.560042 -0.273693 0.0860707 -0.596039 -0.0315942 -0.0934651 0.8 0.268083 
83 -1.27298 -0.466232 -2.59941 0.151541 0.0916595 -0.126193 0.0259291 -0.293647 0.0173388 0.8 0.268083 
117 -0.511695 -0.175371 -2.5966 -0.0432893 0.334113 -0.181685 0.121673 -0.523248 -0.3375 0.8 0.268083 
112 1.8676 -0.122936 -2.59328 0.0687221 0.0844655 0.155273 0.224705 -0.337356 -0.534443 0.8 0.268083 
106 -2.5988 0.430155 -2.59897 -0.0207888 0.348254 0.640616 -0.905143 0.586478 0.14772 0.8 0.268083 
118 -1.23663 0.333775 -2.59811 -0.11588 0.000415197 0.368622 -0.0878126 -0.152411 0.246914 0.8 0.268083 
51 0.216323 0.215158 -2.59488 -0.691344 -0.551511 -0.494928 -0.0109515 0.498695 -0.100977 0.8 0.268083 
32 1.00866 0.0341607 -2.5964 0.294356 -0.106014 0.389325 -0.260066 0.0738725 0.240076 0.8 0.268083 
44 2.59976 0.200637 -2.59592 -0.14713 0.145783 0.325965 0.370798 0.385107 0.00564849 0.8 0.268083 
43 -1.89384 0.812421 -2.59685 -0.00574311 -0.99937 0.32123 0.512461 -0.068942 -0.435351 0.8 0.268083 
41 -1.14283 1.13168 -2.59395 0.389623 0.149234 0.333016 -0.225645 -0.426513 -0.155244 0.8 0.268083 
79 -0.501835 0.649752 -2.59016 -0.0674346 0.241902 0.392617 -0.209938 0.0725884 0.292536 0.8 0.268083 
49 0.214994 1.01835 -2.60022 0.404477 -0.233926 0.490873 1.03607 -0.460577 0.122335 0.8 0.268083 
122 1.71016 0.71227 -2.59758 0.316838 -0.0286674 0.175148 -0.226947 0.25359 -0.273436 0.8 0.268083 
97 2.49828 0.994759 -2.59978 0.249969 0.0217744 -0.0189518 0.170333 0.576164 -0.197405 0.8 0.268083 
69 -2.59413 1.23707 -2.59686 0.222337 0.203618 0.369 0.199563 0.346182 0.0139659 0.8 0.268083 
65 1.04688 1.21879 -2.59542 0.33797 -0.711437 -0.428115 -0.0323381 -0.120518 0.175306 0.8 0.268083 
28 1.84612 1.50415 -2.59888 -0.361586 0.114338 -0.0110068 -0.212694 -0.188189 -0.082697 0.8 0.268083 
102 -2.15525 1.9097 -2.59965 1.03089 -0.461516 0.332223 0.161983 0.549681 0.0346531 0.8 0.268083 
6 -1.35212 1.90388 -2.59345 0.89314 0.144676 0.109799 0.260133 0.0393269 -0.368285 0.8 0.268083 
48 -0.527539 1.90777 -2.59588 0.763804 0.0123223 -0.833213 -0.0763884 -0.982838 -0.675176 0.8 0.268083 
86 0.28921 1.88406 -2.59992 0.0744033 0.387816 0.37126 0.131853 0.622996 -0.0616671 0.8 0.268083 
72 1.21625 2.0022 -2.59835 -0.22757 -0.314661 -0.18205 -0.108919 0.381159 -0.180628 0.8 0.268083 
63 2.5946 1.79049 -2.59728 -0.271402 -0.0110713 -0.0677949 0.395277 0.426633 0.305241 0.8 0.268083 
14 -2.59306 2.5969 -2.5968 0.0617579 -0.103513 1.02588 -0.0631699 -0.186655 0.16004 0.8 0.268083 
21 -1.74976 2.59954 -2.5987 0.394482 0.429915 0.212847 0.175839 -0.0807826 0.558123 0.8 0.268083 
26 -0.942962 2.59924 -2.59947 -0.243909 0.187647 0.662475 -0.576576 0.96161 1.6291 0.8 0.268083 
18 -0.124776 2.59923 -2.59664 -0.631368 -0.690692 -0.262383 0.180061 1.41105 -0.0228725 0.8 0.268083 
92 0.682597 2.59979 -2.59633 -0.039573 0.327386 -0.388298 -0.367465 0.30071 0.158372 0.8 0.268083 
95 1.79659 2.59367 -2.59968 -0.257269 0.00305585 0.0255834 0.140873 0.0137728 0.141592 0.8 0.268083 
91 2.59774 2.59311 -2.59498 -0.152353 -0.125771 -0.233579 -0.287552 0.440872 -0.0278695 0.8 0.268083 
62 -0.569133 -2.60009 -1.91307 0.254135 0.352443 -0.238404 -0.626143 0.299144 -0.492159 0.8 0.268083 
131 0.435907 -2.59905 -2.03112 -0.0868239 0.133351 -0.0858399 0.13284 -0.153934 -0.245808 0.8 0.268083 
184 1.40445 -2.59464 -1.90396 0.257254 0.291769 -0.00630749 -0.547966 0.0266102 -0.104182 0.8 0.268083 
150 2.20522 -2.59838 -1.90318 0.0980288 0.191831 -0.287791 -0.0764568 0.0763999 -0.126589 0.8 0.268083 
74 -2.59981 -1.9425 -2.12616 -1.15883 0.663002 -0.0981872 0.912534 -0.0271801 -0.131262 0.8 0.268083 
101 -1.23079 -2.07978 -2.01221 -0.832772 -0.46309 0.456335 -0.484475 0.383211 -0.25868 0.8 0.268083 
54 -0.0303124 -1.92303 -1.93995 -0.509083 -0.06007 -0.478053 -0.0749535 0.461819 0.16261 0.8 0.268083 
50 0.964581 -1.93675 -2.03397 0.221395 -0.00478023 0.183244 0.145986 -0.611175 -0.332679 0.8 0.268083 
123 2.05007 -1.8156 -1.99833 0.875587 0.269257 0.279462 0.179789 0.179469 -0.701422 0.8 0.268083 
121 -2.59591 -1.18297 -1.80566 -0.209954 -0.175999 0.352647 0.713746 -0.337993 0.0793855 0.8 0.268083 
110 -1.90883 -1.6893 -1.81139 -0.823636 0.132809 0.429818 -0.252075 0.099236 0.120117 0.8 0.268083 
141 -0.733567 -1.44931 -1.96597 0.197964 -0.395287 0.063339 0.0959972 -0.282537 -0.645343 0.8 0.268083 
139 1.42986 -1.28266 -2.03109 -0.07445 0.187227 0.125019 1.09635 0.373471 0.523135 0.8 0.268083 
4 2.60009 -1.22829 -2.03394 0.487195 -0.571405 0.434724 0.217003 0.0394467 -0.0108437 0.8 0.268083 
135 -1.38912 -0.989929 -1.94224 0.987751 1.10831 -0.0570645 -0.274567 0.631573 0.185418 0.8 0.268083 
137 -0.0986189 -0.661662 -2.0939 0.0667481 -0.365515 0.24392 0.330588 -0.0848067 0.298694 0.8 0.268083 
132 0.56752 -1.07153 -1.92435 0.0912795 0.369503 0.583038 -0.0925194 0.0451127 -0.217631 0.8 0.268083 
113 1.96696 -0.68687 -2.01091 0.407624 0.458568 0.0554014 -0.553543 -0.25951 -0.0142436 0.8 0.268083 
114 -2.06439 -0.562917 -1.98143 0.0338628 0.576226 0.321643 -0.126153 0.477065 0.380437 0.8 0.268083 
188 -0.99295 -0.0794372 -1.95708 -0.429141 0.149096 0.317977 -0.275927 0.396419 -0.578757 0.8 0.268083 
19 0.505495 -0.151158 -1.94243 -0.220506 -0.36994 0.190696 -0.345102 0.21963 0.0352569 0.8 0.268083 
160 1.19611 -0.539986 -1.82984 0.0115791 0.0935469 -0.769889 -0.891658 0.245535 0.311002 0.8 0.268083 
75 2.59304 -0.198848 -1.89852 -0.362547 0.147366 0.186572 -0.358976 -0.0277781 -0.491971 0.8 0.268083 
105 -2.59717 0.0245968 -1.86992 -0.274646 -0.178329 0.345001 -0.75148 -0.712677 -0.0901524 0.8 0.268083 
87 -1.87507 0.387593 -1.91675 0.287351 -0.646162 -0.472302 0.0985032 1.04948 0.128553 0.8 0.268083 
47 -0.236668 0.186108 -1.92921 -0.210232 0.129565 0.423255 0.18606 0.364538 0.296275 0.8 0.268083 
27 1.48853 0.23625 -1.9866 -0.443546 0.234967 0.536117 0.148009 0.0417949 -0.331803 0.8 0.268083 
24 -2.54404 0.836954 -1.90516 -0.256008 0.155841 -0.672321 -0.305985 0.0575997 0.241965 0.8 0.268083 
64 -1.09027 0.717404 -1.90982 0.630664 0.757663 -0.120401 0.08405 0.565058 -0.120505 0.8 0.268083 
1 0.755166 0.621942 -2.11682 0.0296199 -0.617657 0.185105 0.278301 0.373535 0.776655 0.8 0.268083 
142 1.4098 1.03731 -1.9051 0.289921 -0.0763943 -0.45022 0.45331 0.233408 -0.100447 0.8 0.268083 
55 2.59329 0.605326 -1.89847 -0.265106 0.572363 -0.35425 -0.31054 0.197114 -0.068179 0.8 0.268083 
52 -1.77214 1.42221 -2.09351 0.37034 -0.821431 -0.0788745 -0.692253 -0.426596 0.109763 0.8 0.268083 
85 -0.537755 1.27288 -2.08694 0.059572 -0.231017 0.246634 0.572997 0.160494 0.365157 0.8 0.268083 
140 0.206166 1.15478 -1.81219 -0.385592 0.423267 -0.584017 -1.61878 0.91097 -0.67947 0.8 0.268083 
33 0.773397 1.69102 -1.99302 -0.18765 -0.487051 0.554236 0.027772 -1.02898 -0.0600315 0.8 0.268083 
129 2.17107 1.28965 -1.90005 0.479764 0.0580047 -0.631842 0.535562 0.107076 0.629367 0.8 0.268083 
73 -2.59923 1.92261 -1.92973 -0.686561 0.168586 -0.394172 0.0637947 0.317011 0.0378172 0.8 0.268083 
84 -1.11301 1.83025 -1.83328 0.649204 -0.351857 0.0693166 0.399156 -0.177163 -0.445975 0.8 0.268083 
125 -0.0845667 1.93792 -1.88246 0.478138 0.634411 -1.06601 0.357976 -0.480168 0.0180577 0.8 0.268083 
149 2.06294 2.06594 -2.0604 -0.174299 0.213324 0.13902 -0.176829 0.0492938 -0.176476 0.8 0.268083 
12 -2.15599 2.59554 -1.90604 0.652406 -0.115342 -0.332069 0.550441 0.204393 -0.0696988 0.8 0.268083 
81 -1.35425 2.59111 -1.9029 -0.159255 -0.353235 -0.0814319 0.0809749 -1.44187 0.306366 0.8 0.268083 
77 -0.550246 2.59152 -1.9007 -0.0879615 0.229661 0.0214244 0.589543 -0.959685 -0.0883819 0.8 0.268083 
179 0.46112 2.56157 -1.808 0.373999 -0.367885 -0.00979759 0.325632 -0.742941 -0.237176 0.8 0.268083 
185 1.24123 2.5928 -2.0182 -0.174987 0.42854 0.605441 -0.748507 -0.775146 -0.564909 0.8 0.268083 
174 -2.59784 -2.59838 -1.66678 0.0398731 0.159475 -0.206337 -0.510481 0.00881689 -0.147703 0.8 0.268083 
34 -1.80702 -2.60008 -1.7993 0.146743 0.315844 0.0896701 0.153313 -0.383164 0.186326 0.8 0.268083 
45 -1.14523 -2.59048 -1.33997 0.1348 -0.717128 -0.166043 0.0593212 0.525245 -0.703762 0.8 0.268083 
25 0.0099553 -2.53787 -1.35703 0.296131 0.465044 0.478344 -0.213847 -0.686117 0.304461 0.8 0.268083 
58 0.832858 -2.5254 -1.32445 -0.301082 -0.120767 0.225008 0.225642 0.208941 -0.290551 0.8 0.268083 
182 -2.59626 -1.86613 -1.32528 0.785815 -0.0678196 0.0344009 -0.349186 -0.0332544 0.409642 0.8 0.268083 
138 -0.601322 -2.00352 -1.37945 -1.63402 -0.471284 -1.21326 -0.31153 -0.383189 0.55012 0.8 0.268083 
175 1.45435 -1.90091 -1.39804 -0.660705 -0.0772898 0.614177 0.395613 -0.288216 -0.374535 0.8 0.268083 
53 2.59848 -1.75562 -1.41763 -0.0595454 -1.21009 0.365009 0.964378 -0.635291 0.864093 0.8 0.268083 
189 -1.25907 -1.54306 -1.36564 0.299997 -0.256509 0.228337 -0.16132 -0.468904 -0.334343 0.8 0.268083 
183 -0.118271 -1.22561 -1.5057 -0.222585 0.655511 -0.227016 0.255341 0.835728 0.180488 0.8 0.268083 
30 0.529059 -1.6858 -1.41078 -0.426999 0.630203 -0.728873 -0.346201 0.232253 0.259434 0.8 0.268083 
215 1.95359 -1.27133 -1.4156 0.0926722 -0.333156 -0.282271 0.625696 0.0182855 -0.217426 0.8 0.268083 
168 -1.9588 -1.04239 -1.30411 -0.228846 -0.625078 -0.0729692 0.30302 0.38554 -0.00367645 0.8 0.268083 
37 -0.745124 -0.720455 -1.52863 -0.471172 0.947223 0.45984 -0.0853296 0.0827216 -0.639956 0.8 0.268083 
145 1.10395 -1.13561 -1.29799 0.644075 0.503327 1.15288 -0.0298912 -0.489737 -0.213983 0.8 0.268083 
210 2.58995 -0.788534 -1.35224 0.345758 0.0342208 0.546969 -0.025789 0.128794 0.115116 0.8 0.268083 
42 -2.59874 -0.54651 -1.30896 0.164709 0.369696 0.293294 0.0332165 -0.025933 -0.360539 0.8 0.268083 
196 -1.48812 -0.39159 -1.40951 -0.249221 -0.898086 0.787891 -0.660447 -0.151699 0.0795198 0.8 0.268083 
187 0.0191345 -0.454371 -1.32415 0.146305 0.356283 0.287799 -0.113592 0.0259468 -0.251531 0.8 0.268083 
158 1.9255 -0.153971 -1.41421 0.301646 0.346128 -0.717521 0.479618 0.0600564 -0.169697 0.8 0.268083 
199 -1.41868 0.39245 -1.25684 1.21672 0.310428 -0.716444 -0.346187 -1.34443 -0.622041 0.8 0.268083 
190 0.348042 0.459924 -1.44287 -0.332681 -0.129997 -0.253019 0.0779733 -0.198887 0.0309098 0.8 0.268083 
128 1.13467 0.40192 -1.2821 0.000436909 -0.183854 0.171154 -0.268357 -0.0700475 0.14465 0.8 0.268083 
234 -1.88838 1.02225 -1.40772 0.676418 -0.172424 0.693455 0.222937 -0.413662 0.32504 0.8 0.268083 
31 -0.417569 0.812595 -1.44032 1.22298 0.336896 -0.593699 0.00577442 0.0337597 0.515685 0.8 0.268083 
116 1.93451 0.647757 -1.44087 -0.232055 -0.115653 -0.412996 0.0597181 0.175604 0.563179 0.8 0.268083 
80 -2.59849 1.38695 -1.32112 0.297757 0.203062 0.224382 -0.122006 -0.0936355 0.251727 0.8 0.268083 
144 0.849067 1.22526 -1.33584 -0.286723 0.0365126 0.390795 -0.969813 -0.377556 -0.16821 0.8 0.268083 
40 -1.9583 1.85828 -1.44935 0.0901289 -0.225147 -0.0163275 0.196966 -0.307636 -0.403531 0.8 0.268083 
228 0.482277 1.96282 -1.27592 0.206256 -0.602908 -0.759653 0.629041 -0.512499 0.113612 0.8 0.268083 
154 1.42403 1.92442 -1.58834 -0.482195 -0.353716 0.103355 -0.345449 -0.273679 -0.349467 0.8 0.268083 
57 2.57616 1.8498 -1.4844 0.316437 -0.714263 -0.511676 0.268014 0.0113653 0.0371573 0.8 0.268083 
100 1.84997 2.59742 -1.49817 -0.248432 -0.205348 0.338098 -0.0197975 -0.312856 -0.410791 0.8 0.268083 
82 2.60003 2.5988 -1.79349 0.059329 -0.103718 0.0611812 0.501081 0.152453 -0.238013 0.8 0.268083 
177 -2.5777 -2.59376 -0.864922 -0.20908 -0.107241 -0.398021 0.841773 -0.837554 0.227608 0.8 0.268083 
93 -0.554065 -2.57721 -0.784196 -0.585533 -0.423732 0.121084 0.493114 0.0552295 0.148102 0.8 0.268083 
134 1.79407 -2.59995 -1.20078 0.323966 -0.39172 0.00491234 0.37922 0.197954 0.306748 0.8 0.268083 
173 2.59642 -2.59406 -1.20274 -0.0601394 0.0706205 -0.157836 -0.225808 -0.141362 0.0147781 0.8 0.268083 
162 -1.8962 -2.19392 -1.11396 0.589804 -0.335923 0.260858 -0.0767212 -0.463915 0.468156 0.8 0.268083 
119 -1.19364 -2.06801 -0.719627 0.412834 0.241772 -0.0946397 -0.0599114 0.0706616 0.467318 0.8 0.268083 
186 -0.00303592 -1.90907 -0.841806 1.57691 0.54922 -0.673963 0.916283 0.240155 -0.0618704 0.8 0.268083 
107 0.834431 -1.95118 -0.720111 0.50474 0.894544 -0.293318 0.779548 0.370972 -0.626603 0.8 0.268083 
90 2.18952 -2.03862 -0.785983 0.612977 -0.0356729 0.0629003 0.0499804 0.905558 0.396631 0.8 0.268083 
36 -2.59328 -1.20849 -0.827284 -0.293385 -0.370383 -0.793747 1.23465 0.262038 0.153518 0.8 0.268083 
166 -0.628101 -1.38393 -0.868943 0.452373 -0.00604677 -0.84612 0.322849 0.342537 0.189084 0.8 0.268083 
249 2.5046 -1.29413 -0.733004 0.366854 -0.202453 0.27919 -0.148792 -0.634482 -0.572653 0.8 0.268083 
193 -1.30999 -0.935212 -0.848236 0.297308 0.126005 0.401438 0.277043 -0.337383 0.351275 0.8 0.268083 
209 -0.561093 -0.593215 -0.753345 -1.12831 0.130751 -1.3298 1.03312 0.261007 -0.102883 0.8 0.268083 
253 0.353229 -1.08662 -0.873398 0.709392 -0.91155 -0.392297 -0.231134 -0.297143 -0.451195 0.8 0.268083 
283 1.88483 -0.784789 -0.781022 0.0841974 -1.55597 -1.326 -0.741487 -0.100885 0.193602 0.8 0.268083 
172 -2.08173 -0.0139615 -0.998479 -1.07387 0.127617 0.171519 0.26581 0.4336 -0.337618 0.8 0.268083 
167 0.526795 -0.0522277 -0.849073 -0.315326 -0.305804 0.951408 0.669461 -0.559061 1.02413 0.8 0.268083 
181 1.24228 -0.357521 -1.05155 0.259044 0.311777 -0.458207 0.0785273 0.112216 0.326473 0.8 0.268083 
109 -0.637493 0.0333242 -1.24905 -0.365142 0.641599 0.0532422 0.511125 0.0503668 0.694345 0.8 0.268083 
231 -0.112775 0.425846 -0.78718 -0.059737 -0.136101 -0.125223 0.446147 -0.103333 -0.624408 0.8 0.268083 
195 2.59955 0.221219 -1.19306 0.857159 0.722584 -0.286208 1.52305 0.297217 0.106099 0.8 0.268083 
35 -2.58349 0.602185 -1.13837 0.157229 -0.231756 0.0027428 -0.221098 0.367302 0.305388 0.8 0.268083 
247 0.646338 0.743065 -0.725559 0.0506859 0.294863 0.30097 0.245984 0.386469 0.179164 0.8 0.268083 
226 1.4296 0.98484 -0.819643 0.088765 -0.417902 0.620854 -1.35926 0.178431 -0.515736 0.8 0.268083 
20 2.59772 1.07625 -1.24972 -0.368107 0.142198 0.324945 1.07141 0.140613 0.303294 0.8 0.268083 
155 -1.11156 1.15967 -1.23074 0.0134436 -1.13535 0.633794 0.343209 0.0675256 0.436904 0.8 0.268083 
212 0.112925 1.29481 -1.03029 0.475898 0.904322 -0.918624 0.0623822 -0.407504 -0.454481 0.8 0.268083 
103 1.94033 1.52752 -1.11221 0.286875 -0.728197 -1.11552 0.801228 1.02113 0.055719 0.8 0.268083 
219 -2.59916 1.91947 -0.720623 0.163417 -0.126044 0.329336 -0.28673 0.19064 -0.290921 0.8 0.268083 
180 -1.30685 1.90401 -0.986363 0.753288 -1.03442 -0.737066 -0.452199 0.186602 -0.531959 0.8 0.268083 
29 -0.548522 1.72973 -1.24541 -0.222692 -0.970974 -0.478151 0.227795 -0.204063 0.0883474 0.8 0.268083 
220 1.12619 1.78602 -0.83551 -0.520589 -0.786529 -0.465434 0.0751727 -1.34517 0.0822218 0.8 0.268083 
152 -2.59668 2.59209 -1.22542 0.493666 -0.0750621 -0.913839 -0.382201 0.188049 0.272265 0.8 0.268083 
176 -1.77366 2.59974 -1.19873 0.273298 -0.174659 0.16737 0.0496108 -0.846634 0.0843966 0.8 0.268083 
98 -0.944729 2.59366 -1.20112 -0.440502 -0.121074 0.624475 -0.0159741 0.278653 -0.398589 0.8 0.268083 
124 -0.145722 2.55955 -1.21115 -0.262654 -0.393127 0.169725 0.979474 0.241183 0.641748 0.8 0.268083 
39 1.08479 2.59265 -1.2293 0.30023 -0.817338 -0.238865 -0.778377 -0.875511 -0.761888 0.8 0.268083 
13 2.59227 2.48373 -0.995383 -0.0310266 -0.319495 0.661773 -1.06777 1.00874 0.764791 0.8 0.268083 
8 -1.79842 -2.59332 -0.413797 -0.358454 -0.219204 0.483258 0.40241 -0.171612 0.024554 0.8 0.268083 
163 0.358449 -2.59842 -0.63484 -0.287628 2.27143 -0.829265 -0.880846 0.26268 0.254347 0.8 0.268083 
233 1.28443 -2.597 -0.575002 0.172867 -0.188077 -0.50493 -0.781769 -1.23945 0.808254 0.8 0.268083 
165 2.57063 -2.59965 -0.359991 0.333364 0.361733 -1.01489 -0.794886 0.0341561 -0.335773 0.8 0.268083 
148 -2.55678 -1.91642 -0.4347 1.40544 -0.000639759 0.877585 -1.03415 0.260823 -0.656687 0.8 0.268083 
115 -0.552099 -1.89791 -0.228168 0.589127 0.484685 -0.774819 -0.299626 -0.368596 -0.48051 0.8 0.268083 
256 -1.8637 -1.50665 -0.640093 -0.588724 -0.994941 -0.0826675 -0.13984 -0.116396 0.113002 0.8 0.268083 
260 -1.22256 -1.38732 -0.174497 0.0739346 -0.312437 0.573073 0.900714 -0.550381 -1.40585 0.8 0.268083 
71 1.55036 -1.56263 -0.679422 -0.609073 -0.741422 0.161159 -0.455984 0.162628 -0.338667 0.8 0.268083 
295 -1.87615 -0.781006 -0.288349 1.14788 0.0666232 -0.0192567 -0.631147 0.430371 -0.421696 0.8 0.268083 
285 -0.390898 -1.11806 -0.150223 0.399992 -0.961982 -2.54307 -1.15564 1.06627 -0.38118 0.8 0.268083 
281 1.07529 -0.937354 -0.510787 1.12037 0.648543 0.853127 -0.424283 -0.636672 -0.116651 0.8 0.268083 
243 -2.57248 -0.451228 -0.513408 0.200687 0.293283 0.30523 0.533239 -0.432648 -0.514432 0.8 0.268083 
250 -1.36812 -0.142004 -0.656517 -0.129695 -0.914387 0.430987 0.847744 -0.51109 0.701018 0.8 0.268083 
271 0.104313 -0.507555 -0.313297 0.728539 0.324935 0.701187 -0.99618 -0.758292 0.638964 0.8 0.268083 
264 2.59073 -0.433953 -0.631584 -0.105943 0.383601 -0.301008 0.836109 -0.424224 0.527084 0.8 0.268083 
111 -2.5683 0.342218 -0.330768 1.27261 0.878683 0.440217 -1.71038 -1.07226 -0.688364 0.8 0.268083 
269 -0.548887 0.0510442 -0.230364 0.413507 0.579347 1.85142 -0.281805 -0.822114 0.604783 0.8 0.268083 
293 1.22808 0.219783 -0.491438 -0.689153 -0.412002 -0.442676 -0.180454 -0.126006 -0.341766 0.8 0.268083 
161 2.0072 0.124846 -0.647124 0.0831796 0.944242 0.458012 1.97182 -0.776906 0.0104722 0.8 0.268083 
194 -2.5736 1.12502 -0.531189 0.867783 -0.984513 0.258342 -0.223244 0.973158 0.475205 0.8 0.268083 
218 -1.86799 0.699789 -0.65976 -1.1537 0.651431 -0.983416 0.976842 1.07619 -0.780776 0.8 0.268083 
178 -0.88761 0.616326 -0.68564 -1.07373 -0.486884 0.120274 -0.630023 0.87669 0.115972 0.8 0.268083 
263 2.59586 0.66794 -0.522438 -1.10363 -0.892346 0.970496 -0.682781 -0.182079 -0.301076 0.8 0.268083 
10 -1.85313 1.52378 -0.533927 1.12986 -0.850498 0.880014 -0.496388 0.267548 0.617025 0.8 0.268083 
229 -0.543134 1.33206 -0.542855 0.391841 0.152649 0.533223 0.351714 -0.528445 0.178967 0.8 0.268083 
164 0.202472 1.20821 -0.233938 -0.0239305 -2.13338 -0.366482 1.59109 -0.0765906 -0.488629 0.8 0.268083 
221 1.03923 1.20462 -0.151511 0.931962 -1.09604 -0.350701 1.22703 -0.534171 0.00106008 0.8 0.268083 
299 2.02044 1.16317 -0.264857 0.6685 0.739134 -0.483049 -0.433631 0.618754 0.39248 0.8 0.268083 
108 2.59399 1.6445 -0.638914 0.0464594 0.396841 0.208409 -0.511001 -0.856619 0.317251 0.8 0.268083 
224 -1.04091 1.88436 -0.232093 -0.27981 0.312752 -0.339139 -0.976872 -1.83601 1.34914 0.8 0.268083 
170 -0.0271549 1.9704 -0.623695 -0.492418 0.0609244 1.80995 -0.729374 0.82411 0.23961 0.8 0.268083 
192 0.648409 1.90306 -0.161953 0.24835 -0.442054 0.202456 -0.364996 0.797564 -0.227758 0.8 0.268083 
205 1.71841 1.9141 -0.273557 -0.401561 -0.164618 1.28847 -0.47262 -1.09013 0.0262459 0.8 0.268083 
120 -2.2049 2.59586 -0.517328 -0.871954 0.674558 0.0752598 0.582397 0.501531 -0.0672952 0.8 0.268083 
56 -1.36503 2.58771 -0.502926 -1.45708 -0.0191488 0.258687 -0.5007 0.4193 -0.59331 0.8 0.268083 
213 -0.559909 2.54936 -0.477528 -0.806835 0.45091 0.73458 -0.505725 0.676295 0.79717 0.8 0.268083 
133 0.489406 2.59321 -0.692243 -0.266437 1.52857 0.498888 1.09324 1.43418 -0.37669 0.8 0.268083 
272 1.17013 2.504 -0.277485 0.548199 0.522434 -0.109403 -0.687899 -0.380292 -0.214824 0.8 0.268083 
169 1.85608 2.59197 -0.681252 -0.204399 -0.304575 1.11601 0.42821 0.513535 0.518816 0.8 0.268083 
159 2.55262 2.58982 -0.176543 -0.16226 0.906945 0.373739 -0.377188 -1.81202 -0.838884 0.8 0.268083 
2 -2.55914 -2.59403 0.298575 -0.123285 -0.19679 -0.430755 0.275055 -1.02752 -0.240889 0.8 0.268083 
197 -1.08842 -2.52443 -0.0226488 0.0610474 0.35115 -0.0835785 -1.0534 0.162972 -0.30271 0.8 0.268083 
198 -0.202173 -2.59553 0.0321498 0.569918 -0.803902 0.403724 -0.200991 -1.13333 0.917927 0.8 0.268083 
211 0.764391 -2.5804 0.239846 0.0893352 -1.17441 -0.451977 -0.169757 0.472177 0.73235 0.8 0.268083 
143 1.87801 -2.31878 -0.0214397 0.347222 -0.59451 -0.323599 1.14608 -0.669544 0.627847 0.8 0.268083 
280 -2.56655 -1.79451 0.366485 0.881929 -0.0267619 2.08234 1.18579 0.765125 0.81676 0.8 0.268083 
238 -1.78804 -1.92518 0.0769081 -0.0817615 0.123991 0.560634 -0.571378 -0.260868 0.696868 0.8 0.268083 
3 0.321186 -1.99374 -0.106029 1.86958 -0.786067 1.15635 -0.919956 1.33032 0.572577 0.8 0.268083 
17 2.53935 -1.82817 -0.0976042 -0.836887 0.428285 0.167775 -0.508276 -0.339223 0.499618 0.8 0.268083 
289 0.450878 -1.20437 -0.0705121 -0.0271726 0.0317058 -0.745971 1.67718 -0.922785 0.459252 0.8 0.268083 
266 1.10227 -1.71329 0.00634094 0.135175 0.751384 -0.101287 -0.716653 0.755394 -0.358339 0.8 0.268083 
298 1.82862 -1.38231 0.0514258 -0.989066 0.395625 0.788077 0.502758 0.118069 -1.39742 0.8 0.268083 
171 -2.59676 -1.09436 -0.0278898 0.939317 -0.0746822 0.682977 -0.444712 -1.60712 0.0665037 0.8 0.268083 
245 -1.00781 -0.594723 -0.0891857 1.05622 -0.80542 -0.215832 0.42845 1.8246 1.19672 0.8 0.268083 
262 1.18506 -0.954781 0.288831 0.828506 0.173625 0.674194 -0.803343 -0.349505 -0.712524 0.8 0.268083 
156 2.57097 -0.939859 -0.00528683 -0.00653299 -0.131455 0.0160781 0.198902 -0.566965 1.32889 0.8 0.268083 
200 -2.57965 -0.368907 0.318074 -0.278017 -0.578861 1.67312 0.605384 -0.036539 0.114928 0.8 0.268083 
9 -1.90637 -0.0238522 -0.0135957 -0.131237 -0.196025 1.32781 1.66173 1.07517 0.624424 0.8 0.268083 
334 0.822784 -0.30098 -0.0225224 0.651403 0.722789 0.104482 0.740504 1.27919 0.196952 0.8 0.268083 
315 1.83187 -0.551402 -0.0155807 -0.968947 -0.362719 -0.195681 0.386206 -0.5915 0.675406 0.8 0.268083 
191 -1.19322 0.330311 0.155343 0.617269 0.048135 0.280067 0.226881 1.15638 1.18984 0.8 0.268083 
273 0.245933 0.256895 -0.0764613 -0.519989 -1.03456 0.611949 -0.453714 0.418882 0.840412 0.8 0.268083 
300 0.957108 0.462656 0.237808 -0.515548 -4.25144 -4.13373 1.4559 -0.74802 0.69511 0.8 0.268083 
338 1.76824 0.411966 0.0783897 1.2378 0.0868381 -3.5996 -1.66172 -0.765784 0.111983 0.8 0.268083 
348 2.5558 0.0597443 0.00278988 0.438782 -0.797409 1.19784 -1.17329 -0.417314 1.56978 0.8 0.268083 
202 -1.97309 0.968762 0.0883017 0.551761 -0.706466 0.397927 -0.393261 0.0766558 2.23113 0.8 0.268083 
322 -1.19183 1.09498 -0.114715 0.0868047 -0.525163 1.01392 -0.238933 0.617653 -0.464096 0.8 0.268083 
227 -0.444069 0.839695 0.115638 0.258715 0.146885 -0.896658 -0.264587 1.09839 0.125901 0.8 0.268083 
282 2.56009 0.84476 0.270955 -0.579125 0.605323 0.556301 1.38289 -0.56826 0.30262 0.8 0.268083 
151 -2.53281 1.66891 0.0795958 2.63272 0.127291 0.929235 -0.375949 -1.21368 1.63351 0.8 0.268083 
318 -1.59501 1.63874 0.386128 -2.19346 -1.5279 -4.82129 -1.47436 -2.06101 2.81824 0.8 0.268083 
7 -0.148719 1.86077 0.196386 1.22364 -0.408479 -1.85751 -0.472315 -2.31957 -0.255802 0.8 0.268083 
206 1.23611 1.83813 0.391499 0.405627 -1.1292 -0.261393 0.758832 -0.552489 0.181679 0.8 0.268083 
217 2.51604 1.78031 0.170596 1.30645 -1.00742 -1.83811 -0.745322 -1.67754 2.59649 0.8 0.268083 
94 -2.59158 2.57775 0.258185 0.227894 0.241742 2.01394 1.17325 0.415299 -0.391717 0.8 0.268083 
248 -1.81568 2.39219 0.16539 -1.43703 0.832035 1.34991 -2.01109 -2.79433 -0.0362449 0.8 0.268083 
203 -0.986605 2.55006 0.223986 -3.64387 0.817032 0.45153 0.466691 -0.775566 -0.376974 0.8 0.268083 
244 0.246902 2.5875 0.0792827 1.42961 -0.754272 0.141387 -0.505414 0.304352 0.770662 0.8 0.268083 
232 1.75981 2.53306 0.291705 -1.67363 1.66396 -0.0312724 3.49424 -0.0875703 0.758657 0.8 0.268083 
207 -1.84441 -2.57478 0.676256 0.250644 -0.425839 0.133542 -0.339064 1.04156 -0.883076 0.8 0.268083 
240 -0.85708 -2.58235 0.803335 -0.341301 0.824532 0.759577 -0.82132 -0.0828668 -0.470338 0.8 0.268083 
327 0.089847 -2.58465 0.875976 -0.07724 -0.412926 -1.06932 2.10107 2.02332 -1.30757 0.8 0.268083 
67 1.50551 -2.39565 0.843258 -0.805212 -0.713488 1.60829 -1.45697 0.145402 -1.28695 0.8 0.268083 
214 2.51058 -2.55287 0.45843 0.35054 -0.27338 -0.51188 -0.116861 -0.759841 -0.470649 0.8 0.268083 
252 -0.973064 -1.85522 0.456341 -1.35534 0.954253 -0.746999 -1.78425 1.12385 1.47085 0.8 0.268083 
302 0.625463 -1.83373 0.694068 -1.5013 0.546993 2.18701 -0.954196 0.884289 1.55354 0.8 0.268083 
225 2.13198 -1.84341 0.634479 -1.05787 0.219995 -0.248494 -0.339312 -0.116391 0.704302 0.8 0.268083 
291 -1.91441 -1.15524 0.459455 0.395349 1.79941 0.376913 0.693256 0.211653 1.51605 0.8 0.268083 
345 -0.172009 -1.66134 0.448165 -1.40037 1.93882 -2.21831 -1.76799 0.30719 -0.367021 0.8 0.268083 
350 1.37665 -1.54263 0.816522 -1.35423 -1.71688 0.870034 0.851436 2.10868 0.914814 0.8 0.268083 
321 2.57244 -1.18768 0.789804 -1.75842 -0.498864 0.785895 -0.127992 0.0994702 -0.97444 0.8 0.268083 
340 -2.5947 -0.964001 0.887131 -0.0714801 -1.23615 1.60906 0.429048 0.307387 -5.34189 0.8 0.268083 
319 -1.11245 -0.982114 0.607136 -0.774469 -1.90159 -1.22802 2.20259 -0.0975193 1.82972 0.8 0.268083 
314 0.206762 -0.918026 0.667126 -1.04913 -0.209272 -0.330908 -0.973484 -2.24939 -4.00025 0.8 0.268083 
222 1.8154 -0.873636 0.8271 0.565197 1.20435 -1.63412 -1.19273 -1.14049 0.204014 0.8 0.268083 
230 -1.61798 -0.363236 0.725641 -3.80903 -3.17004 -1.68615 -2.06857 0.743101 -0.48042 0.8 0.268083 
344 -0.405813 -0.413478 0.412899 -1.09124 -0.769787 0.854607 1.59965 -1.32499 0.362299 0.8 0.268083 
60 1.3859 -0.158274 0.536947 1.46645 -2.11333 0.322287 0.0923443 1.69349 2.05533 0.8 0.268083 
278 2.54571 -0.386124 0.67197 0.963359 1.29623 -0.621305 -2.84176 -0.0201261 -2.71656 0.8 0.268083 
343 -2.57829 0.52749 0.452455 -0.778028 -1.53945 -1.02917 -1.71697 1.19075 -0.525202 0.8 0.268083 
305 -0.736016 0.232467 0.837895 -1.44689 0.224064 0.25311 0.146835 0.123021 2.12149 0.8 0.268083 
284 0.0747673 0.393782 0.693494 0.323518 -0.224728 0.989447 -0.0818613 0.886794 -2.38568 0.8 0.268083 
267 -1.04555 0.967419 0.677773 -0.0381177 -0.863358 0.935158 2.42422 0.677615 -2.01178 0.8 0.268083 
337 0.958787 1.10915 0.800086 -2.15738 0.92474 -3.7731 0.652215 1.15107 1.76013 0.8 0.268083 
257 -2.59926 1.59298 0.948664 -0.689533 -0.394044 -0.151335 -0.084743 -0.694726 1.05783 0.8 0.268083 
239 0.0787963 1.19974 0.61477 -0.952868 -3.15798 1.35538 -0.634245 -2.41767 -1.89438 0.8 0.268083 
306 1.7664 1.18923 0.495961 0.358662 0.780192 0.0152436 0.569918 -0.236285 -0.0601058 0.8 0.268083 
288 -0.818078 1.83026 0.749664 0.674962 -1.60183 0.335106 -1.62699 0.916485 -2.36251 0.8 0.268083 
251 0.434963 1.98557 0.736746 0.183371 -0.0770425 2.15608 -1.76666 -0.185634 2.05832 0.8 0.268083 
274 -0.284723 2.54471 0.688786 -0.23816 0.439915 0.333893 0.309148 -1.1493 1.1629 0.8 0.268083 
242 0.992027 2.59831 0.515138 -1.31214 -0.779818 -0.477201 0.470947 -3.02563 -1.02862 0.8 0.268083 
241 2.51393 2.45307 0.641377 -0.460726 0.635668 1.31151 1.80333 1.5574 -0.648988 0.8 0.268083 
254 -1.50076 -2.42508 1.44586 1.99619 -1.14732 -2.30316 -2.31913 0.532149 1.17864 0.8 0.268083 
130 0.780715 -2.49168 1.45001 0.444311 1.43725 -0.0434917 -3.13527 -0.140206 0.272532 0.8 0.268083 
308 -2.47653 -1.75558 1.17744 -0.420061 0.573928 -0.765133 1.33097 -2.21693 -0.605461 0.8 0.268083 
255 -1.67119 -1.71879 1.0149 0.0588955 0.280994 1.03664 -0.9251 -0.725598 1.19013 0.8 0.268083 
286 -0.397995 -2.01641 1.20932 2.48293 -2.12478 -0.192481 3.66419 1.25978 -1.22534 0.8 0.268083 
277 2.46072 -1.91699 1.35974 -1.00494 -0.511397 -0.0495184 -1.19244 1.81363 -3.3023 0.8 0.268083 
270 -0.463113 -1.22381 1.05499 -0.263271 -0.987969 -2.4846 -1.94922 -2.28038 2.38359 0.8 0.268083 