ITEM: TIMESTEP
1700000
ITEM: NUMBER OF ATOMS
400
ITEM: BOX BOUNDS ff ff ff
-4.7800000000000002e+00 4.7800000000000002e+00
-4.7800000000000002e+00 4.7800000000000002e+00
-4.7800000000000002e+00 5.1000000000000000e+01
ITEM: ATOMS id x y z vx vy vz omegax omegay omegaz diameter mass 
46 -3.2591 -3.27899 -3.27473 0.161067 0.414504 -0.145673 -0.129958 0.198503 0.269434 1 0.523599 
75 -1.80909 -3.27962 -3.27917 0.842814 -0.453924 0.20773 -0.140996 0.570756 0.00602874 1 0.523599 
43 -0.37948 -3.27907 -3.27817 -0.119234 -0.736495 0.206365 -0.228122 0.366051 -0.268809 1 0.523599 
55 1.1406 -3.27774 -3.27969 -0.415462 0.0263518 -0.185025 0.0798726 0.305301 -0.0895953 1 0.523599 
37 2.27939 -3.27981 -3.27946 -0.158544 -0.1814 0.02279 -0.314161 -0.174266 -0.216298 1 0.523599 
86 3.27987 -3.27987 -3.28008 0.0262067 -0.0367345 -0.0159459 -0.125572 0.102475 0.028284 1 0.523599 
90 -2.54337 -2.55892 -3.27757 0.1591 -0.542865 -0.197846 -0.316828 0.195569 0.243192 1 0.523599 
92 -1.09488 -2.5723 -3.27745 1.08683 0.147319 -0.193747 -0.0717243 0.463192 -0.317728 1 0.523599 
60 0.354514 -2.55311 -3.27908 0.572905 0.461303 -0.482283 0.118592 0.0791018 -0.0858889 1 0.523599 
93 1.72377 -2.44836 -3.279 -0.142497 -0.173617 -0.158314 0.24405 0.316744 -0.219421 1 0.523599 
52 3.27449 -2.27927 -3.27991 0.185307 0.0336048 0.0959103 0.426478 0.0567318 -0.100594 1 0.523599 
67 -3.27787 -1.83995 -3.27568 -0.00485304 0.254595 0.489254 -0.32734 -0.138861 -0.197479 1 0.523599 
70 -1.82027 -1.84281 -3.27589 0.586866 0.179712 0.0305378 -0.314188 0.316434 -0.0166193 1 0.523599 
116 -0.386987 -1.84318 -3.27946 -0.14697 -0.293232 0.597928 0.29273 0.135956 0.0397712 1 0.523599 
100 1.04492 -1.714 -3.27738 0.147382 -0.0056325 -0.185216 -0.256303 -0.049373 0.0843673 1 0.523599 
6 2.43015 -1.74069 -3.27977 0.187809 -0.568083 -0.525443 0.425575 0.11943 -0.269904 1 0.523599 
57 -2.55427 -1.13604 -3.27949 -0.197222 0.240479 -0.261429 -0.103952 0.240746 0.0582706 1 0.523599 
56 -1.101 -1.12264 -3.27956 0.0284252 0.301957 0.239962 -0.12258 0.368512 0.0730996 1 0.523599 
95 0.548556 -0.844186 -3.27861 0.240968 0.165841 0.0160313 -0.297906 -0.0122841 -0.239363 1 0.523599 
2 2.2123 -0.764089 -3.28005 0.041029 -0.364966 0.321264 0.0515193 0.179573 -0.24039 1 0.523599 
11 3.2801 -1.21203 -3.2784 -0.0286817 -0.0225927 -0.0212282 0.043762 0.126084 0.102571 1 0.523599 
66 -3.27602 -0.383742 -3.27964 0.154844 0.0698894 -0.92416 0.128191 -0.110715 -0.09503 1 0.523599 
136 -1.80863 -0.405716 -3.27859 0.18584 -0.306058 0.224639 0.0598519 0.269689 -0.614101 1 0.523599 
76 -0.345556 -0.395461 -3.27944 4.01276e-05 -0.208879 -0.4388 -0.0251434 0.0943368 0.236646 1 0.523599 
94 1.47571 -0.0742496 -3.27726 -0.0133745 0.0992442 -0.126837 -0.166756 0.230901 0.193639 1 0.523599 
36 3.05851 -0.230874 -3.27614 0.251698 -0.0560653 -0.323157 -0.224255 -0.323037 0.00702554 1 0.523599 
32 -2.53378 0.332321 -3.27961 0.0461718 -0.28384 0.204608 -0.0447315 0.217447 0.072766 1 0.523599 
81 -1.05103 0.318647 -3.28009 -0.237919 0.112407 -0.0511176 -0.0640143 0.173916 0.0866982 1 0.523599 
65 0.584056 0.0573378 -2.84394 -0.0811284 -0.00313551 -0.0126249 0.331722 -0.315511 0.122965 1 0.523599 
24 2.28765 0.613252 -3.27965 -0.202626 0.186719 -0.0823122 -0.51873 -0.167416 -0.418897 1 0.523599 
74 -3.27228 1.05828 -3.27579 0.0528445 -0.0799433 -0.487487 -0.269495 0.0418034 0.089294 1 0.523599 
51 -1.74911 1.03479 -3.28002 0.301954 0.201297 -0.023115 -0.440357 0.471247 -0.320532 1 0.523599 
89 -0.291376 1.02528 -3.27363 -0.368396 -0.708602 -0.409923 -0.699809 0.133604 0.111415 1 0.523599 
128 1.02115 0.847908 -3.27998 -0.110525 0.412776 -0.32824 -0.0502915 0.0665364 0.304421 1 0.523599 
63 3.28001 0.744072 -3.27979 0.111888 -0.0810206 0.0699826 -0.0701193 -0.0344475 0.15906 1 0.523599 
80 -2.41114 1.78454 -3.27761 0.364737 0.123048 -0.100458 -0.0889872 0.0278593 0.584709 1 0.523599 
16 -1.01282 1.7306 -3.27967 0.477123 0.213325 -0.35494 -0.242296 0.22716 0.412742 1 0.523599 
88 0.425083 1.74224 -3.27869 -0.166327 -0.102863 -0.073656 -0.511894 -0.250109 -0.129466 1 0.523599 
39 1.78192 1.49677 -3.28012 -0.119548 0.0379102 -0.155642 0.166557 -0.255356 -0.244329 1 0.523599 
68 2.77853 1.609 -3.27976 -0.00642249 -0.103529 0.0277439 0.0531772 -0.175126 -0.22505 1 0.523599 
44 -3.27975 2.27993 -3.27968 -0.00877811 0.263923 -0.425067 -0.0745578 -0.0495097 -0.0576693 1 0.523599 
25 -1.68622 2.47443 -3.27909 -0.47333 -0.0235154 -0.40663 -0.214138 0.171529 0.294807 1 0.523599 
1 -0.322789 2.46344 -3.27956 -0.0762948 -0.039393 0.00724358 -0.13528 -0.326338 0.158643 1 0.523599 
34 1.18386 2.39488 -3.27615 -0.0612374 0.0345044 0.115732 0.170829 -0.169085 0.101075 1 0.523599 
35 2.18412 2.4134 -3.27888 0.367871 0.28012 0.261249 0.216392 0.0771099 -0.0205151 1 0.523599 
77 3.28028 2.47452 -3.27973 0.448497 -0.201819 -1.01378 0.125439 -0.219542 0.199912 1 0.523599 
31 -3.27997 3.27975 -3.28037 0.00314038 0.130059 -0.354521 -0.0800035 -0.0503187 0.00866722 1 0.523599 
82 -2.27968 3.2799 -3.27975 0.172636 0.123068 0.302722 -0.039564 0.205796 0.0808527 1 0.523599 
45 -1.08724 3.27937 -3.27949 -0.108213 0.280089 0.470888 -0.212602 -0.364865 0.0231595 1 0.523599 
23 0.549627 3.25565 -3.27909 -0.520005 0.221322 0.101941 0.0374386 -0.611 0.0645518 1 0.523599 
72 1.68294 3.27959 -3.27941 0.276602 0.304068 -0.0463843 0.0156731 -0.0946131 0.100806 1 0.523599 
54 2.68356 3.27953 -3.28013 0.526394 -0.0217932 0.0100022 0.131785 0.261447 -0.189636 1 0.523599 
98 -2.53687 -3.27703 -2.57832 0.146858 -0.230429 -0.14628 -0.479818 -0.0621219 -0.446193 1 0.523599 
59 -1.09518 -3.27998 -2.57008 0.299713 0.109545 0.442461 -0.0154561 -0.381244 -0.215267 1 0.523599 
20 0.339242 -3.27918 -2.58045 0.426711 0.222827 -0.235221 0.0448698 0.244028 -0.449103 1 0.523599 
138 1.78409 -3.26671 -2.41113 0.0277557 0.822905 -0.0844892 0.19569 0.635662 -0.327528 1 0.523599 
27 3.27786 -3.27808 -2.28038 -0.194252 0.119885 -0.441387 0.212856 0.266271 0.0850095 1 0.523599 
110 -3.2659 -2.55718 -2.57805 -0.0201276 -0.137829 -0.126476 0.215093 0.160685 -0.147232 1 0.523599 
30 -1.80968 -2.55665 -2.57368 0.471762 0.0686618 0.0325821 -0.137732 -0.327197 0.302931 1 0.523599 
15 -0.369168 -2.55899 -2.58174 0.619121 0.146096 0.127389 -0.0970797 -0.00660326 0.204175 1 0.523599 
133 1.06007 -2.58718 -2.5427 0.333313 -0.194097 0.302005 0.620975 0.0915479 -0.152833 1 0.523599 
26 2.558 -2.55523 -2.58509 -0.0259988 0.379005 0.0117533 0.122946 -0.389851 -0.275687 1 0.523599 
48 -2.55227 -1.84657 -2.57419 0.293943 0.153218 -0.144761 0.0644871 0.00284189 0.022476 1 0.523599 
114 -1.10377 -1.83514 -2.57835 -0.112215 -0.162407 0.0508834 -0.127055 -0.117995 0.0104772 1 0.523599 
108 0.338968 -1.83016 -2.5784 -0.179808 -0.364996 -0.0981379 0.56362 -0.000943771 -0.0715666 1 0.523599 
38 1.83072 -1.85189 -2.48342 0.603303 -0.610686 0.549406 0.225504 0.492385 0.32688 1 0.523599 
149 3.27534 -1.81379 -2.3933 0.227945 -0.407857 0.212769 0.0476261 -0.045699 0.481837 1 0.523599 
127 -3.27826 -1.11114 -2.58712 0.236497 0.387306 -0.224258 -0.113713 0.12331 0.181148 1 0.523599 
184 -1.82872 -1.12589 -2.57894 -0.0678498 0.33027 0.0108487 -0.199097 0.227259 0.136119 1 0.523599 
162 -0.378147 -1.12104 -2.58505 -0.0520915 -0.00870463 -0.18402 0.676145 -0.140932 0.0209585 1 0.523599 
200 0.512149 -0.771854 -2.28145 -0.606039 0.346855 0.17096 -0.34039 -0.19934 -0.308998 1 0.523599 
130 1.3893 -0.937181 -2.73921 -0.20275 -0.0365733 0.192532 0.202315 -0.223851 -0.116768 1 0.523599 
121 2.53464 -1.14139 -2.41024 -0.140803 -0.419073 -0.472218 -0.0949798 -0.234684 -0.256519 1 0.523599 
61 -2.54143 -0.3996 -2.5872 -0.21394 0.00136282 -0.461591 -0.282322 0.144885 -0.390084 1 0.523599 
102 -1.07781 -0.400769 -2.58494 0.860379 -0.172433 -0.442498 0.336856 -0.320129 0.0531703 1 0.523599 
150 2.37039 -0.090669 -2.5579 -0.00436357 0.301417 -0.208165 -0.43845 -0.71959 0.37625 1 0.523599 
87 3.27921 -0.437646 -2.3234 0.244372 -0.215622 0.425942 0.0610457 0.136365 -0.26483 1 0.523599 
105 -3.2759 0.335263 -2.58465 0.0502987 -0.482402 -0.191882 0.284099 -0.127977 -0.00204999 1 0.523599 
97 -1.77903 0.317979 -2.58307 0.162348 0.17323 -0.511734 0.530377 -0.176695 0.0850009 1 0.523599 
33 -0.346542 0.31057 -2.57035 -0.527651 -0.880355 -0.149948 0.740098 -0.0889829 -0.0448891 1 0.523599 
195 1.62675 0.580699 -2.5301 -0.365723 0.164292 -0.218717 0.798247 0.139687 0.217296 1 0.523599 
125 3.10288 0.547003 -2.31532 -0.23982 0.0455136 -0.21546 0.261989 -0.192568 0.101586 1 0.523599 
135 -2.47901 1.0584 -2.59322 0.448002 0.213205 0.128138 -0.218305 0.072751 0.0696105 1 0.523599 
118 -1.04495 1.02996 -2.56526 0.322757 -0.120615 0.0534768 0.378726 -0.123372 -0.0887181 1 0.523599 
85 0.378508 0.998105 -2.52692 -0.204898 -0.0835546 -0.00939469 -0.101865 0.14309 0.175712 1 0.523599 
139 2.29686 1.31805 -2.44167 -0.186254 -0.599412 -0.0299557 -0.178263 -0.169784 0.179072 1 0.523599 
58 -3.2802 1.67191 -2.48597 -0.69702 0.337683 0.00989579 0.268469 -0.215304 0.500033 1 0.523599 
40 -1.70484 1.78168 -2.5571 -0.15029 0.193983 0.278446 0.245934 0.0550498 -0.0618263 1 0.523599 
19 -0.291637 1.74443 -2.57655 -0.803968 -0.211775 0.212613 0.81604 -0.586664 -0.0668188 1 0.523599 
41 1.11327 1.67671 -2.54962 -0.615287 0.062694 0.154978 0.0431298 0.0482862 -0.303783 1 0.523599 
22 3.27958 1.52592 -2.41684 0.180957 0.60422 0.143692 -0.255849 -0.0281447 0.0875455 1 0.523599 
145 -2.52224 2.54229 -2.62715 -0.23185 0.640456 0.0972729 -0.105194 0.290541 0.201973 1 0.523599 
187 -1.00466 2.52581 -2.54961 0.0654406 0.371673 0.0569092 0.243873 -0.157405 0.152438 1 0.523599 
71 0.434107 2.50711 -2.62448 -0.03716 -0.273914 0.122254 0.386148 0.640184 -0.325033 1 0.523599 
5 1.74936 2.42874 -2.37865 -0.0325261 -0.309674 -0.12264 -0.461399 -0.157984 0.0885622 1 0.523599 
4 2.7492 2.37292 -2.43846 -0.149079 -0.310459 -0.322382 0.268026 0.332677 -0.303023 1 0.523599 
112 -3.2796 3.28013 -2.28077 -1.70194 0.301118 -0.50607 0.0588403 -0.157221 -0.385599 1 0.523599 
115 -1.68429 3.27779 -2.47561 -0.179806 -0.398512 0.0996956 0.21555 0.271611 0.17171 1 0.523599 
147 -0.271691 3.27575 -2.69772 -0.408244 -0.0480769 0.574005 -0.104491 -0.204479 -0.413097 1 0.523599 
28 1.11921 3.2619 -2.4535 -0.416103 0.0269504 -0.149214 -0.262911 0.425347 -0.0389619 1 0.523599 
132 2.28386 3.27996 -2.36315 0.0426224 0.0513 -0.0110951 -0.118728 -0.542688 -0.0511302 1 0.523599 
62 3.28014 3.2226 -2.4752 -0.0261806 -0.308598 0.419773 0.0752639 -0.188673 0.0790963 1 0.523599 
21 -3.26827 -3.28008 -1.88672 -0.199279 0.0666189 0.00513535 -0.263946 -0.0977436 0.238771 1 0.523599 
69 -1.81289 -3.2795 -1.87389 0.122365 -0.195704 -0.59059 0.155387 0.168169 -0.115091 1 0.523599 
111 -0.371855 -3.27215 -1.86619 0.177099 -0.851354 0.185797 -0.314912 0.421545 0.00238048 1 0.523599 
137 1.00503 -3.27976 -1.78433 0.00638499 0.159711 0.504779 0.785895 -0.423797 -0.0810669 1 0.523599 
49 2.47464 -3.27244 -1.68361 -0.474833 -0.728902 0.461839 0.582925 0.0791685 -0.150913 1 0.523599 
120 -2.5321 -2.56327 -1.87639 0.259817 0.0338788 0.0369081 0.268991 -0.14966 0.103088 1 0.523599 
14 -1.0782 -2.55724 -1.87362 -0.313532 0.051521 -0.196833 -0.0868966 0.288716 -0.224518 1 0.523599 
237 0.321923 -2.55088 -1.85627 -0.104467 -0.268186 0.491188 -0.587587 -0.112722 0.373449 1 0.523599 
91 1.79401 -2.52909 -1.73381 0.214906 -0.319386 0.0853522 -0.713769 -0.295114 0.287153 1 0.523599 
109 3.2694 -2.49285 -1.65783 -0.0929262 -0.461627 0.107242 -0.758573 0.237119 0.234638 1 0.523599 
83 -3.27777 -1.82873 -1.88561 -0.278108 0.258768 -0.168937 0.0344173 -0.602134 0.347437 1 0.523599 
117 -1.81839 -1.83827 -1.8718 -0.205228 0.254002 -0.301251 -0.122455 0.151976 0.270753 1 0.523599 
155 -0.382798 -1.83815 -1.88565 0.242581 -0.265787 0.474234 -0.660941 -0.122299 -0.216606 1 0.523599 
151 1.04733 -1.85469 -1.86058 0.252062 -0.59103 0.0689639 0.0908948 0.0438271 -0.570138 1 0.523599 
134 2.52299 -1.82187 -1.67692 0.172848 -0.595933 0.0805564 -0.394984 -0.140202 -0.266123 1 0.523599 
47 -2.54991 -1.1225 -1.88361 0.146434 -0.039394 0.726994 0.369193 0.422401 0.0624015 1 0.523599 
157 -1.08527 -1.11773 -1.87651 0.424815 -0.519015 0.0734578 0.126639 0.218653 -0.229166 1 0.523599 
129 1.7209 -1.11713 -1.81298 0.236822 -0.0787645 0.152642 -0.510816 -0.285421 0.258344 1 0.523599 
73 3.27373 -1.1149 -1.58208 0.092806 0.257237 -0.0861237 -0.137332 0.127017 0.60542 1 0.523599 
140 -3.27401 -0.388259 -1.8944 -0.10952 0.0609528 0.260794 0.16336 -0.392294 0.104609 1 0.523599 
173 -1.78731 -0.394566 -1.87868 -0.16954 -0.19729 -0.454856 0.362847 -0.0332092 0.0739871 1 0.523599 
144 -0.342371 -0.410658 -1.86686 -0.125578 -0.239314 0.0802037 -0.342083 0.640238 0.3364 1 0.523599 
170 1.30938 -0.224139 -2.02778 0.231836 0.273171 0.101347 0.0829526 0.516963 -0.282528 1 0.523599 
163 2.48752 -0.494375 -1.64795 0.299816 -0.262707 -0.54034 -0.272465 -0.0462815 -0.281729 1 0.523599 
103 -2.49146 0.319261 -1.87293 0.617266 0.259805 0.3459 -0.830858 0.629022 0.624483 1 0.523599 
185 -1.05967 0.299776 -1.86766 0.0625174 -0.165023 0.287339 0.0155804 -0.0430052 -0.148158 1 0.523599 
183 0.433972 0.240632 -1.86815 0.0306676 -0.115456 -0.0870156 0.332235 0.594312 0.168847 1 0.523599 
228 2.27036 0.489269 -1.74938 -0.701781 0.0672489 -0.313259 0.777494 0.709231 -0.457617 1 0.523599 
50 -3.27942 0.948761 -1.79142 -0.0769964 0.148016 0.136547 0.0881485 0.0978737 0.129202 1 0.523599 
178 -1.77611 1.02772 -1.87562 -0.424516 -0.167879 0.0306666 -0.372009 -0.509338 0.0572893 1 0.523599 
124 -0.350563 1.01956 -1.84325 -0.101699 0.370656 -0.323055 0.115587 0.230675 0.241423 1 0.523599 
205 1.13482 1.0268 -1.7831 -0.165399 0.210588 -0.257588 -0.642267 -0.29728 0.104066 1 0.523599 
172 -2.47186 1.78857 -1.90751 0.498626 0.358785 -0.345126 0.189191 0.31719 0.415563 1 0.523599 
181 -1.00926 1.78327 -1.83826 0.209856 -0.207752 -0.376501 0.749623 -0.523221 0.697864 1 0.523599 
131 0.389532 1.70854 -1.80746 -0.137685 0.196274 -0.225355 -0.0408341 0.033597 -0.0765721 1 0.523599 
12 1.92899 1.7762 -1.62602 -0.419016 -0.557005 -0.558792 0.734134 0.353979 0.519276 1 0.523599 
18 -3.27847 2.40556 -1.79446 0.475252 0.0169812 -0.0174957 -0.121033 -0.0631438 0.108266 1 0.523599 
42 -1.71795 2.48955 -1.84961 -0.456652 -0.339323 0.323383 0.279066 0.0211064 0.430296 1 0.523599 
202 -0.274539 2.46102 -1.85612 0.216008 0.038907 -0.658616 0.303352 -0.653041 -0.0590662 1 0.523599 
186 0.960373 2.53441 -1.7719 0.127635 -0.132101 -0.0116465 -0.421961 -0.280861 0.386822 1 0.523599 
79 2.4578 2.69877 -1.53859 0.145469 -0.369051 0.516776 -0.18242 -0.945865 -0.56943 1 0.523599 
106 3.27778 2.12097 -1.61314 0.231826 0.463479 0.158579 0.268815 -0.230507 0.476854 1 0.523599 
194 -2.41082 3.27724 -1.78662 -0.528525 -0.180716 -0.576933 0.477016 -0.183883 0.232098 1 0.523599 
193 -0.881516 3.27166 -1.86996 -0.385158 0.00470385 0.445741 -0.21485 -0.684082 0.134952 1 0.523599 
9 0.301163 3.27923 -1.87707 0.0174973 -0.0856563 -0.120413 0.313356 0.904011 -0.0167077 1 0.523599 
126 1.64177 3.27966 -1.59611 0.0971792 -0.0771934 0.390049 0.283227 0.703153 0.422654 1 0.523599 
180 -2.55369 -3.27744 -1.16206 0.103099 0.098381 -0.1046 0.0477823 0.200787 -0.228219 1 0.523599 
143 -1.08302 -3.27617 -1.14394 0.522688 0.207852 -0.155793 -0.653328 -0.72662 -0.279275 1 0.523599 
253 0.285616 -3.27285 -1.08873 -0.125694 0.176244 0.42967 0.097888 1.26296 -0.317201 1 0.523599 
148 1.74398 -3.26173 -0.990972 0.21797 -0.56963 0.294825 0.172819 -0.0193846 -0.169822 1 0.523599 
160 3.27421 -3.27939 -1.03984 0.148452 -0.101361 0.938005 0.452378 -0.350053 0.0500799 1 0.523599 
192 -3.25917 -2.56282 -1.18153 0.97104 -0.178397 -0.0490194 0.781804 -0.281983 -0.127793 1 0.523599 
99 -1.8057 -2.55146 -1.16977 -0.058466 -0.25253 0.614925 0.204267 -0.148811 -0.430354 1 0.523599 
266 -0.387848 -2.53484 -1.15007 -0.117299 0.309044 0.349417 -0.477025 -0.35048 -0.4292 1 0.523599 
7 1.03151 -2.55502 -1.0843 0.465801 0.0463989 0.772726 -0.282173 0.254938 0.290902 1 0.523599 
64 2.49803 -2.5873 -0.948104 0.0183826 -0.312599 0.271181 0.580446 0.0153925 0.0678767 1 0.523599 
8 -2.55793 -1.84217 -1.17839 -0.309539 -0.795312 0.706793 -0.328665 -0.984775 0.119921 1 0.523599 
239 -1.09961 -1.83229 -1.17324 0.113392 0.0895796 0.754694 0.110253 -0.421533 -0.238372 1 0.523599 
255 0.339081 -1.83454 -1.14776 0.0706548 -0.127635 0.0689417 -0.379011 0.244049 -0.147847 1 0.523599 
141 1.72133 -1.78466 -1.06598 -0.271436 -0.0722453 0.348756 0.495304 -0.152797 0.0481685 1 0.523599 
84 3.27065 -1.84253 -0.887638 0.152149 0.0703335 -0.00975148 -0.498545 0.0527984 -0.430597 1 0.523599 
152 -3.27014 -1.08865 -1.15295 -0.151558 0.308386 -1.08341 -0.373714 0.00210785 0.142857 1 0.523599 
199 -1.80332 -1.11973 -1.17363 0.350605 0.0279832 -0.132258 0.0463096 0.348023 0.640339 1 0.523599 
243 -0.331601 -1.09143 -1.13414 0.318447 -1.10923 -0.551454 -0.206522 0.140803 -0.253741 1 0.523599 
246 0.834206 -0.992042 -1.35941 0.0666492 -0.652354 -0.626137 0.405923 0.0510255 -0.0725068 1 0.523599 
177 2.52708 -1.17136 -0.908639 -0.45154 -0.935322 -0.858258 0.485616 -0.0297437 0.105054 1 0.523599 
167 -2.51219 -0.414588 -1.17655 0.48345 0.374255 -0.548459 0.191625 -0.389332 0.353535 1 0.523599 
198 -1.07195 -0.420178 -1.1539 -0.100269 -0.836053 -0.306928 0.203554 0.435044 -0.183825 1 0.523599 
241 0.539511 -0.128118 -0.913193 0.452234 0.745991 -0.0791428 -0.161749 -0.558142 -0.0419187 1 0.523599 
78 1.6728 -0.649793 -0.929682 0.0514074 -0.0207928 0.0173737 0.585378 0.681465 0.394528 1 0.523599 
158 -3.26721 0.246507 -1.0781 0.0501703 -0.0471571 -0.000187292 -1.05572 0.573587 0.195329 1 0.523599 
164 -1.77198 0.300008 -1.15839 -0.422248 -0.8489 -0.0367724 -0.528176 0.219376 0.03725 1 0.523599 
250 -0.35945 0.297878 -1.15204 0.286406 -0.357717 -0.866181 0.506024 0.292362 -0.554409 1 0.523599 
231 1.4903 0.348969 -1.13676 -0.465743 -0.270497 -0.139856 0.701329 -0.0171726 0.0491347 1 0.523599 
146 3.28024 0.0814923 -1.44411 -0.319384 0.123546 0.227668 0.524754 -0.469059 0.40678 1 0.523599 
179 -2.48022 1.02144 -1.14978 0.349206 -0.611341 -0.560078 -0.167725 -0.241201 0.819968 1 0.523599 
218 -1.07028 1.01834 -1.14123 -0.265867 0.15678 0.275124 0.0344121 -0.0338685 -0.266409 1 0.523599 
236 0.455323 0.873873 -1.0555 -0.3361 0.440086 0.371766 -0.0920451 -0.135717 0.606832 1 0.523599 
249 2.4468 1.00716 -0.911954 0.152558 -0.951296 0.320182 -0.408427 0.0566113 -0.863842 1 0.523599 
10 3.25257 1.1284 -1.49512 -0.121232 -0.277432 0.773514 0.146161 0.0859938 -0.499787 1 0.523599 
104 -3.27884 1.68028 -1.10464 0.211305 -0.1598 -0.113532 0.170786 -0.0458948 -0.0681694 1 0.523599 
272 -1.79124 1.74597 -1.17106 0.137117 0.177565 0.108701 0.840483 -0.433887 -0.303177 1 0.523599 
96 -0.336109 1.69856 -1.10236 0.307686 0.0462913 0.093526 -0.0926389 0.218661 0.564891 1 0.523599 
226 1.16293 1.57743 -0.94699 -0.631986 0.215195 0.0842241 0.168826 -0.00487562 -0.0811906 1 0.523599 
196 -2.47691 2.4842 -1.17661 -1.00248 -0.103196 0.0446994 -0.974331 -1.09254 -0.0233091 1 0.523599 
225 -0.962258 2.49418 -1.12729 -0.79732 -0.164085 -0.957931 0.423591 -0.545876 0.635077 1 0.523599 
230 0.415962 2.344 -0.953655 0.0768919 0.156069 -0.364019 -0.0335809 0.243292 -1.03183 1 0.523599 
207 1.59828 2.47893 -0.980158 0.448005 0.478735 -0.332283 -0.718979 0.29268 -1.38828 1 0.523599 
13 -3.27956 3.27158 -1.27767 0.470037 0.429708 -0.888082 0.438111 0.59307 0.0920243 1 0.523599 
154 -1.61146 3.27986 -1.18593 -0.115639 0.0186214 -0.0493865 -0.855787 0.0847167 -0.47834 1 0.523599 
244 -0.19848 3.19041 -1.01042 0.170449 0.0752686 -0.265956 0.174433 -0.838586 -1.0569 1 0.523599 
245 0.828233 3.26307 -1.01305 0.306408 0.357787 0.237387 0.234292 0.786653 0.138471 1 0.523599 
3 3.27348 3.27725 -1.4747 -0.255197 -0.150467 0.365405 -0.336255 0.20677 0.365335 1 0.523599 
240 -3.27278 -3.25134 -0.447941 0.0662593 0.230734 0.100902 -0.530973 -0.142487 0.0805834 1 0.523599 
191 -1.78568 -3.2577 -0.415153 0.39094 0.609915 -0.754686 -0.782257 1.0396 0.270398 1 0.523599 
216 0.988441 -3.26928 -0.333376 -0.00313923 0.976514 0.259655 1.09558 -0.201679 -0.260844 1 0.523599 
113 2.44095 -3.27695 -0.210337 -0.819205 -0.664583 -0.570222 0.766765 -0.788454 -0.0228462 1 0.523599 
165 -2.50723 -2.55515 -0.452722 -0.403655 0.141493 -0.436697 0.924961 0.65481 -0.84251 1 0.523599 
17 -1.09485 -2.52534 -0.44245 -0.369207 0.452476 0.342162 0.831045 0.678496 0.237834 1 0.523599 
281 0.696164 -2.12306 -0.23844 0.457046 -0.200965 -0.133255 -0.857441 -0.224544 1.36499 1 0.523599 
264 1.67323 -2.52586 -0.274573 0.0351803 -0.186001 -0.323289 0.0240359 0.530318 0.426296 1 0.523599 
221 3.23623 -2.5949 -0.229623 0.192267 0.556109 0.223472 -0.0514294 -0.00989702 0.229427 1 0.523599 
233 -3.27789 -1.86065 -0.46211 -0.321842 -0.101247 -0.284241 0.690866 0.0314709 0.742286 1 0.523599 
234 -1.81703 -1.82801 -0.456869 -0.294972 0.0877255 -0.0763897 -0.489254 0.788403 0.760908 1 0.523599 
279 -0.334069 -1.86092 -0.400342 0.387099 -0.281355 0.606546 -0.0802174 0.166088 0.581539 1 0.523599 
29 2.45594 -1.8952 -0.208316 -0.34611 0.0463528 0.495246 0.350971 0.94746 -0.478269 1 0.523599 
210 -2.54446 -1.12769 -0.463762 0.493651 -0.0927358 -0.514634 0.958541 0.728993 -1.2295 1 0.523599 
217 -1.05035 -1.16087 -0.432777 0.70592 0.368781 0.501091 0.00323974 0.981959 -0.609006 1 0.523599 
315 0.51895 -1.13595 -0.421782 -0.313218 0.894006 -0.165289 -0.114293 0.160911 -1.00822 1 0.523599 
212 -3.27013 -0.421602 -0.331317 -0.768985 0.0636948 -0.263965 0.979023 0.368405 0.344648 1 0.523599 
252 -1.76713 -0.43672 -0.398918 -0.175473 -0.550464 0.335021 0.750904 -0.301208 0.405473 1 0.523599 
291 -0.298668 -0.388271 -0.424217 -0.633259 -0.138282 -0.844016 -0.0595948 0.168706 0.733126 1 0.523599 
188 3.27289 -0.545516 -0.65986 -0.357889 -0.0246777 -0.952758 -0.342051 0.284299 0.381783 1 0.523599 
208 -2.49332 0.263919 -0.436572 0.397332 0.299715 0.545594 0.998226 0.0399083 -0.156798 1 0.523599 
222 -1.05548 0.291178 -0.427274 -0.17649 -0.0502043 -0.27001 -0.784385 1.03008 0.265686 1 0.523599 
107 2.41129 0.010693 -0.787018 0.385471 -0.453816 0.0372967 0.861897 0.506002 -0.577074 1 0.523599 
247 3.26391 0.463973 -0.496556 -0.7611 -0.898281 -0.555054 0.218941 -0.0815216 0.125047 1 0.523599 
190 -3.22228 1.02965 -0.347471 -0.00543538 -0.0609618 0.229097 -0.376991 -0.260265 -0.663085 1 0.523599 
227 -1.77579 0.986954 -0.424627 -0.871376 0.108192 0.562835 0.346018 -0.016279 0.878794 1 0.523599 
251 -0.307209 0.962726 -0.392368 -0.684068 -1.10306 0.0918465 -0.158915 0.864012 -0.923658 1 0.523599 
219 1.64448 0.961836 -0.31675 -0.402957 -0.287493 -0.895252 0.736017 0.820509 -0.232555 1 0.523599 
206 -2.49953 1.73743 -0.390764 -3.11633 -0.878278 -2.62033 -0.0135334 -0.87543 0.24011 1 0.523599 
261 -1.10014 1.74723 -0.438277 0.253233 -1.3165 -0.647399 -0.243458 -0.14856 0.356155 1 0.523599 
268 0.485782 1.60329 -0.20239 -0.193215 0.491833 0.207623 0.00354353 0.650721 -0.467335 1 0.523599 
265 2.46401 2.00728 -0.809898 0.15699 -0.400505 -0.139458 -0.2724 -1.06809 0.172748 1 0.523599 
119 3.24892 1.46953 -0.501499 0.465086 -0.511143 0.332451 0.341659 0.366854 0.00739104 1 0.523599 
123 -3.26953 2.52198 -0.552679 0.78063 0.524099 0.162243 -0.108862 0.16078 0.451961 1 0.523599 
175 -1.75412 2.5427 -0.485507 -0.181716 -0.232645 0.340262 0.674732 0.30459 -0.0259096 1 0.523599 
215 -0.323782 2.38012 -0.280931 -1.20362 1.31504 -0.843308 -0.466803 -0.746427 -0.596443 1 0.523599 
174 3.27203 2.59613 -0.732334 0.0391362 -0.323536 0.561184 -0.811973 -0.127388 0.324753 1 0.523599 
153 -2.56037 3.27961 -0.571973 -0.640607 -0.683864 0.354751 0.281759 -0.776314 -0.296045 1 0.523599 
169 -0.999895 3.26852 -0.387144 0.480013 0.619698 -0.348444 -0.817011 -0.0626872 1.19812 1 0.523599 
201 1.58794 3.26075 -0.355901 -0.578166 0.692789 -0.201984 0.810199 -0.339859 1.83718 1 0.523599 
232 2.5241 3.27781 -0.724767 0.0679635 0.103963 0.221248 0.590722 -0.358999 -0.690029 1 0.523599 
284 -2.52908 -3.21563 0.307145 0.325416 0.301516 0.536752 -0.777462 -1.58294 -0.478496 1 0.523599 
168 -0.933124 -3.25187 0.250864 1.71152 0.067925 0.11709 -1.86853 -1.35875 -1.29166 1 0.523599 
260 0.0235407 -2.99922 -0.151345 2.81837 -0.559917 -0.288085 0.0816492 -0.274196 0.776684 1 0.523599 
323 -3.27045 -2.53101 0.279751 0.423145 0.437517 0.223628 -0.433684 0.245056 -0.447132 1 0.523599 
242 -1.7096 -2.62584 0.356077 1.75104 -1.17314 -0.0439712 0.366076 -0.325784 -1.01106 1 0.523599 
296 -2.42241 -1.92406 0.363445 1.72586 -0.539591 1.38467 -0.842534 -0.208822 0.368615 1 0.523599 
197 -0.909648 -1.83095 0.461378 0.961839 0.786624 1.48213 -0.472649 -1.10001 -0.0236264 1 0.523599 
203 1.51362 -1.44039 -0.13739 1.15278 0.154029 0.402879 -1.02317 0.649111 0.631621 1 0.523599 
248 -3.172 -1.20687 0.392855 0.919621 -0.669813 1.47487 -1.1559 3.93957 0.100934 1 0.523599 
223 -1.70209 -1.19395 0.365338 0.350903 -0.345059 0.871218 3.41003 3.13627 -0.813652 1 0.523599 
345 -0.212057 -1.11233 0.304052 0.882089 -0.593163 -1.15082 1.28076 -0.00373825 -0.277086 1 0.523599 
238 3.25674 -1.31496 -0.0129464 -0.0561126 0.0166522 0.228964 0.198403 -0.944412 1.54842 1 0.523599 
310 -2.52659 -0.414117 0.376489 1.02676 -1.03798 -0.640759 0.0724996 -0.0464403 -0.108782 1 0.523599 
166 -0.986315 -0.478358 0.29645 1.32208 -0.72175 0.490394 -0.632271 1.7826 0.227598 1 0.523599 
343 0.483641 -0.352598 0.239115 -0.481258 0.149801 1.05169 0.672146 -0.265469 -0.171694 1 0.523599 
288 1.48052 -0.026881 -0.166052 0.290671 -0.889669 0.38914 -1.73081 1.80414 1.38108 1 0.523599 
176 2.33611 -0.657144 -0.038907 -0.464695 -0.99324 -0.318349 -0.842941 -1.38357 -0.585276 1 0.523599 
297 3.27798 -0.247299 0.301431 0.0725082 0.823878 -1.18425 -0.267772 0.650651 -0.167263 1 0.523599 
275 -1.74147 0.296821 0.317838 0.757909 0.777243 0.0993998 0.265977 0.63937 -0.346079 1 0.523599 
311 -0.338539 0.282086 0.355841 0.024872 0.399462 0.234138 1.13223 -1.10203 0.719642 1 0.523599 
259 0.667132 0.596637 -0.050741 0.971091 -0.988487 0.264094 -0.180024 -0.855235 0.278232 1 0.523599 
300 2.46496 0.411836 0.165682 -0.786264 -0.648649 -0.0497301 -1.66933 -0.583644 0.061869 1 0.523599 
334 -2.47722 0.975733 0.42022 1.48237 1.52707 0.731048 -0.202635 1.24588 -1.30297 1 0.523599 
142 -1.01662 1.07984 0.30699 0.631987 -1.0394 -2.35464 -1.03061 0.34242 0.638471 1 0.523599 
122 3.27034 1.01434 0.4449 -0.291979 0.703852 -0.279615 -2.54743 -0.0134835 -0.477977 1 0.523599 
53 -3.23816 1.87853 0.292007 0.0621707 -0.169153 0.837775 -1.36907 0.482552 0.789207 1 0.523599 
324 -1.79362 1.78693 0.320112 1.59907 1.97876 -1.37427 -0.301092 1.74162 0.808543 1 0.523599 
328 1.37185 1.63196 0.396967 0.744623 -0.368296 -0.297257 0.687054 -1.04433 1.43324 1 0.523599 
295 2.41207 1.4624 0.0922111 0.137196 -0.885016 -0.689749 1.35558 -0.91137 -0.743847 1 0.523599 
293 -2.47404 2.5805 0.237927 -0.475423 -1.82681 -0.0969577 1.85607 0.475269 -0.512211 1 0.523599 
171 1.00279 2.46677 -0.146139 0.366339 -0.638452 0.0411509 0.398449 -0.0215289 0.512 1 0.523599 
278 1.99215 2.38788 -0.00701217 0.736596 -0.112096 -1.73142 -0.142797 -0.0428266 0.0463937 1 0.523599 
257 3.27861 2.21618 0.201125 0.250543 -1.03481 -0.0813698 1.68761 -0.185307 1.31586 1 0.523599 
182 -3.23612 3.26838 0.171365 0.548041 -0.745481 -0.596303 1.38032 -0.264496 -1.94439 1 0.523599 
161 -1.53211 3.1946 0.464096 0.863972 0.979904 -0.132863 -1.54514 1.05738 1.46069 1 0.523599 
204 0.321591 3.222 -0.15183 0.816191 -1.44122 0.969706 1.48321 0.1958 1.00848 1 0.523599 
282 2.29706 3.27053 0.35396 -0.412297 -0.0419493 -1.06203 0.234499 -1.39065 -0.147622 1 0.523599 
101 3.2806 3.27749 -4.55923e-05 0.609679 -0.201879 -0.1223 0.0933957 -0.18263 -0.104743 1 0.523599 
340 -3.21009 -3.20501 1.11486 1.35745 -0.518571 0.147166 -0.684401 0.800037 -2.65647 1 0.523599 
289 0.642752 -3.08041 0.638573 -0.771433 -2.37529 -0.776815 -0.79329 0.0461756 -0.383491 1 0.523599 
290 1.63715 -3.26244 0.477058 0.13483 1.35625 0.0357589 -4.17989 -0.5417 -0.749306 1 0.523599 
298 3.18576 -3.19768 0.5796 1.12666 -2.08701 -0.531485 -0.3188 0.599598 -2.75976 1 0.523599 
156 0.0643031 -2.23171 0.582029 1.225 1.02382 2.27968 -1.03745 1.53702 -1.73014 1 0.523599 
320 1.40098 -2.25057 0.649801 -0.524847 0.0839918 0.134052 0.846108 0.581657 -1.10368 1 0.523599 
159 2.41738 -2.55631 0.560237 1.04371 1.47479 -0.191319 1.24993 -0.153509 1.2623 1 0.523599 
263 0.706098 -1.45974 0.513192 -0.465004 0.360025 0.58083 0.338952 -0.658658 0.97078 1 0.523599 
285 2.24814 -1.40555 0.639275 0.916866 -1.83092 -1.24762 -0.254351 1.83841 2.02995 1 0.523599 
189 3.2765 -2.03206 0.710875 -0.495275 -0.752952 0.103767 0.0707448 0.420828 0.031574 1 0.523599 
333 1.5063 -0.701297 0.584443 0.44001 0.232966 0.624812 0.982066 -0.0678292 -0.522435 1 0.523599 
235 3.16516 -0.959321 1.00909 -0.0608397 0.139802 0.71066 0.486651 2.22361 0.682347 1 0.523599 
325 -0.276169 -0.423552 1.07071 1.78242 0.205623 1.36607 -2.26069 1.54474 -2.40691 1 0.523599 
270 -3.26556 0.369812 0.518859 -1.113 1.3837 -1.40547 0.922841 0.0133924 1.20547 1 0.523599 
351 -1.07369 0.412453 1.05482 1.72276 -2.73109 -2.04951 -0.716838 -0.831494 0.450543 1 0.523599 
348 0.540937 0.332673 1.00148 1.319 -1.96853 0.905148 -0.929947 1.8566 0.317924 1 0.523599 
220 1.49151 0.604066 0.639532 -1.64143 -0.387638 -1.35467 0.4215 -0.965923 -1.90542 1 0.523599 
339 0.721796 1.3252 1.09621 1.73382 -1.95394 -2.14024 1.13947 1.23987 -1.98471 1 0.523599 
350 2.36787 0.954818 1.03625 0.140195 -1.0198 0.102006 -1.30193 0.0845226 1.86778 1 0.523599 
287 -0.204989 1.61877 0.604889 1.41235 -0.866618 0.648531 1.68172 -0.921233 0.0394962 1 0.523599 
271 -3.1847 2.56853 1.03262 0.609759 -1.67642 0.824787 -0.196758 0.147352 0.602469 1 0.523599 
224 -0.91485 2.33501 0.603567 -1.28333 -0.547907 1.10837 0.299796 1.58421 0.782153 1 0.523599 
214 0.271875 2.50279 0.574655 -0.184492 -1.43903 -0.239594 1.10475 -0.777416 -0.933852 1 0.523599 
329 2.31596 2.10123 0.922133 -0.173698 -0.812579 -0.393212 0.522835 0.563154 -0.547163 1 0.523599 
267 -2.39135 3.26479 1.05289 0.37091 -0.526501 -1.15408 1.8776 -0.331218 0.206292 1 0.523599 
347 -0.400831 3.28104 0.557428 4.37603 1.55518 -5.51316 0.232536 3.89836 0.563531 1 0.523599 